MODEL 1
REMARK VINA RESULT:      -6.2      0.000      0.000
REMARK  Name = peptide_47_IYCKPIKHYG
REMARK  5 active torsions:
REMARK  status: ('A' for Active; 'I' for Inactive)
REMARK    1  A    between atoms: N_1  and  CA_2
REMARK    2  A    between atoms: CA_2  and  CB_3
REMARK    3  A    between atoms: CA_2  and  C_13
REMARK    4  A    between atoms: CB_3  and  CG_4
REMARK    5  A    between atoms: C_13  and  OXT_15
REMARK                            x       y       z     vdW  Elec       q    Type
REMARK                         _______ _______ _______ _____ _____    ______ ____
ROOT
ATOM      1  CG  TRP A   1      18.353   5.313   9.125  0.00  0.00    -0.020 A 
ATOM      2  CD1 TRP A   1      18.141   3.938   9.113  0.00  0.00    +0.087 A 
ATOM      3  NE1 TRP A   1      19.322   3.278   9.151  0.00  0.00    -0.360 N 
ATOM      4  CE2 TRP A   1      20.276   4.225   9.174  0.00  0.00    +0.047 A 
ATOM      5  CZ2 TRP A   1      21.656   4.034   9.197  0.00  0.00    +0.026 A 
ATOM      6  CH2 TRP A   1      22.479   5.175   9.200  0.00  0.00    +0.002 A 
ATOM      7  CZ3 TRP A   1      21.910   6.467   9.176  0.00  0.00    +0.001 A 
ATOM      8  CE3 TRP A   1      20.513   6.631   9.151  0.00  0.00    +0.010 A 
ATOM      9  CD2 TRP A   1      19.724   5.480   9.155  0.00  0.00    +0.003 A 
ATOM     10  HE1 TRP A   1      19.460   2.244   9.146  0.00  0.00    +0.165 HD
ENDROOT
BRANCH   1  11
ATOM     11  CB  TRP A   1      17.303   6.383   9.020  0.00  0.00    +0.067 C 
BRANCH  11  12
ATOM     12  CA  TRP A   1      16.188   6.187  10.067  0.00  0.00    +0.165 C 
BRANCH  12  13
ATOM     13  N   TRP A   1      14.993   6.955   9.710  0.00  0.00    -0.318 NA
ATOM     14  H1  TRP A   1      15.254   7.655   8.978  0.00  0.00    +0.119 HD
ATOM     15  H2  TRP A   1      14.659   7.490  10.545  0.00  0.00    +0.119 HD
ENDBRANCH  12  13
BRANCH  12  16
ATOM     16  C   TRP A   1      16.653   6.585  11.440  0.00  0.00    +0.322 C 
ATOM     17  O   TRP A   1      17.345   7.626  11.602  0.00  0.00    -0.249 OA
BRANCH  16  18
ATOM     18  OXT TRP A   1      16.343   5.782  12.534  0.00  0.00    -0.479 OA
ATOM     19  HXT TRP A   1      15.882   6.170  13.349  0.00  0.00    +0.295 HD
ENDBRANCH  16  18
ENDBRANCH  12  16
ENDBRANCH  11  12
ENDBRANCH   1  11
TORSDOF 5
ENDMDL
MODEL 2
REMARK VINA RESULT:      -6.2     46.082     47.417
REMARK  Name = peptide_47_IYCKPIKHYG
REMARK  5 active torsions:
REMARK  status: ('A' for Active; 'I' for Inactive)
REMARK    1  A    between atoms: N_1  and  CA_2
REMARK    2  A    between atoms: CA_2  and  CB_3
REMARK    3  A    between atoms: CA_2  and  C_13
REMARK    4  A    between atoms: CB_3  and  CG_4
REMARK    5  A    between atoms: C_13  and  OXT_15
REMARK                            x       y       z     vdW  Elec       q    Type
REMARK                         _______ _______ _______ _____ _____    ______ ____
ROOT
ATOM      1  CG  TRP A   1      -9.506  -0.152  47.922  0.00  0.00    -0.020 A 
ATOM      2  CD1 TRP A   1      -9.858   1.194  47.895  0.00  0.00    +0.087 A 
ATOM      3  NE1 TRP A   1      -8.752   1.972  47.950  0.00  0.00    -0.360 N 
ATOM      4  CE2 TRP A   1      -7.708   1.128  48.024  0.00  0.00    +0.047 A 
ATOM      5  CZ2 TRP A   1      -6.358   1.462  48.118  0.00  0.00    +0.026 A 
ATOM      6  CH2 TRP A   1      -5.425   0.412  48.204  0.00  0.00    +0.002 A 
ATOM      7  CZ3 TRP A   1      -5.859  -0.933  48.198  0.00  0.00    +0.001 A 
ATOM      8  CE3 TRP A   1      -7.229  -1.239  48.104  0.00  0.00    +0.010 A 
ATOM      9  CD2 TRP A   1      -8.128  -0.177  48.014  0.00  0.00    +0.003 A 
ATOM     10  HE1 TRP A   1      -8.722   3.016  47.951  0.00  0.00    +0.165 HD
ENDROOT
BRANCH   1  11
ATOM     11  CB  TRP A   1     -10.447  -1.323  47.952  0.00  0.00    +0.067 C 
BRANCH  11  12
ATOM     12  CA  TRP A   1     -11.736  -1.036  47.156  0.00  0.00    +0.165 C 
BRANCH  12  13
ATOM     13  N   TRP A   1     -12.914  -1.536  47.867  0.00  0.00    -0.318 NA
ATOM     14  H1  TRP A   1     -12.711  -2.504  48.207  0.00  0.00    +0.119 HD
ATOM     15  H2  TRP A   1     -13.721  -1.604  47.204  0.00  0.00    +0.119 HD
ENDBRANCH  12  13
BRANCH  12  16
ATOM     16  C   TRP A   1     -11.676  -1.648  45.784  0.00  0.00    +0.322 C 
ATOM     17  O   TRP A   1     -11.670  -2.901  45.643  0.00  0.00    -0.249 OA
BRANCH  16  18
ATOM     18  OXT TRP A   1     -11.597  -0.825  44.663  0.00  0.00    -0.479 OA
ATOM     19  HXT TRP A   1     -11.406   0.165  44.759  0.00  0.00    +0.295 HD
ENDBRANCH  16  18
ENDBRANCH  12  16
ENDBRANCH  11  12
ENDBRANCH   1  11
TORSDOF 5
ENDMDL
MODEL 3
REMARK VINA RESULT:      -5.6      3.784      5.470
REMARK  Name = peptide_47_IYCKPIKHYG
REMARK  5 active torsions:
REMARK  status: ('A' for Active; 'I' for Inactive)
REMARK    1  A    between atoms: N_1  and  CA_2
REMARK    2  A    between atoms: CA_2  and  CB_3
REMARK    3  A    between atoms: CA_2  and  C_13
REMARK    4  A    between atoms: CB_3  and  CG_4
REMARK    5  A    between atoms: C_13  and  OXT_15
REMARK                            x       y       z     vdW  Elec       q    Type
REMARK                         _______ _______ _______ _____ _____    ______ ____
ROOT
ATOM      1  CG  TRP A   1      21.132   5.785   8.836  0.00  0.00    -0.020 A 
ATOM      2  CD1 TRP A   1      21.664   4.499   8.867  0.00  0.00    +0.087 A 
ATOM      3  NE1 TRP A   1      20.678   3.584   9.013  0.00  0.00    -0.360 N 
ATOM      4  CE2 TRP A   1      19.531   4.283   9.087  0.00  0.00    +0.047 A 
ATOM      5  CZ2 TRP A   1      18.243   3.777   9.260  0.00  0.00    +0.026 A 
ATOM      6  CH2 TRP A   1      17.180   4.695   9.331  0.00  0.00    +0.002 A 
ATOM      7  CZ3 TRP A   1      17.425   6.083   9.231  0.00  0.00    +0.001 A 
ATOM      8  CE3 TRP A   1      18.735   6.565   9.059  0.00  0.00    +0.010 A 
ATOM      9  CD2 TRP A   1      19.768   5.629   8.987  0.00  0.00    +0.003 A 
ATOM     10  HE1 TRP A   1      20.791   2.548   9.073  0.00  0.00    +0.165 HD
ENDROOT
BRANCH   1  11
ATOM     11  CB  TRP A   1      21.903   7.072   8.759  0.00  0.00    +0.067 C 
BRANCH  11  12
ATOM     12  CA  TRP A   1      23.091   7.081   9.743  0.00  0.00    +0.165 C 
BRANCH  12  13
ATOM     13  N   TRP A   1      22.925   8.125  10.755  0.00  0.00    -0.318 NA
ATOM     14  H1  TRP A   1      23.673   8.010  11.478  0.00  0.00    +0.119 HD
ATOM     15  H2  TRP A   1      22.005   8.001  11.240  0.00  0.00    +0.119 HD
ENDBRANCH  12  13
BRANCH  12  16
ATOM     16  C   TRP A   1      24.395   7.280   9.021  0.00  0.00    +0.322 C 
ATOM     17  O   TRP A   1      24.410   7.508   7.781  0.00  0.00    -0.249 OA
BRANCH  16  18
ATOM     18  OXT TRP A   1      25.594   7.180   9.721  0.00  0.00    -0.479 OA
ATOM     19  HXT TRP A   1      25.659   7.482  10.686  0.00  0.00    +0.295 HD
ENDBRANCH  16  18
ENDBRANCH  12  16
ENDBRANCH  11  12
ENDBRANCH   1  11
TORSDOF 5
ENDMDL
MODEL 4
REMARK VINA RESULT:      -5.6      1.600      1.905
REMARK  Name = peptide_47_IYCKPIKHYG
REMARK  5 active torsions:
REMARK  status: ('A' for Active; 'I' for Inactive)
REMARK    1  A    between atoms: N_1  and  CA_2
REMARK    2  A    between atoms: CA_2  and  CB_3
REMARK    3  A    between atoms: CA_2  and  C_13
REMARK    4  A    between atoms: CB_3  and  CG_4
REMARK    5  A    between atoms: C_13  and  OXT_15
REMARK                            x       y       z     vdW  Elec       q    Type
REMARK                         _______ _______ _______ _____ _____    ______ ____
ROOT
ATOM      1  CG  TRP A   1      19.260   5.718   9.565  0.00  0.00    -0.020 A 
ATOM      2  CD1 TRP A   1      18.928   4.381   9.362  0.00  0.00    +0.087 A 
ATOM      3  NE1 TRP A   1      20.042   3.647   9.138  0.00  0.00    -0.360 N 
ATOM      4  CE2 TRP A   1      21.072   4.511   9.186  0.00  0.00    +0.047 A 
ATOM      5  CZ2 TRP A   1      22.423   4.226   8.995  0.00  0.00    +0.026 A 
ATOM      6  CH2 TRP A   1      23.338   5.293   9.070  0.00  0.00    +0.002 A 
ATOM      7  CZ3 TRP A   1      22.885   6.606   9.328  0.00  0.00    +0.001 A 
ATOM      8  CE3 TRP A   1      21.515   6.864   9.515  0.00  0.00    +0.010 A 
ATOM      9  CD2 TRP A   1      20.634   5.785   9.440  0.00  0.00    +0.003 A 
ATOM     10  HE1 TRP A   1      20.088   2.621   8.950  0.00  0.00    +0.165 HD
ENDROOT
BRANCH   1  11
ATOM     11  CB  TRP A   1      18.303   6.857   9.772  0.00  0.00    +0.067 C 
BRANCH  11  12
ATOM     12  CA  TRP A   1      17.198   6.872   8.697  0.00  0.00    +0.165 C 
BRANCH  12  13
ATOM     13  N   TRP A   1      17.154   8.163   8.007  0.00  0.00    -0.318 NA
ATOM     14  H1  TRP A   1      17.895   8.171   7.269  0.00  0.00    +0.119 HD
ATOM     15  H2  TRP A   1      17.383   8.928   8.683  0.00  0.00    +0.119 HD
ENDBRANCH  12  13
BRANCH  12  16
ATOM     16  C   TRP A   1      15.851   6.573   9.296  0.00  0.00    +0.322 C 
ATOM     17  O   TRP A   1      15.689   5.561  10.030  0.00  0.00    -0.249 OA
BRANCH  16  18
ATOM     18  OXT TRP A   1      14.769   7.402   9.012  0.00  0.00    -0.479 OA
ATOM     19  HXT TRP A   1      14.583   7.706   8.063  0.00  0.00    +0.295 HD
ENDBRANCH  16  18
ENDBRANCH  12  16
ENDBRANCH  11  12
ENDBRANCH   1  11
TORSDOF 5
ENDMDL
MODEL 5
REMARK VINA RESULT:      -5.4      3.068      5.454
REMARK  Name = peptide_47_IYCKPIKHYG
REMARK  5 active torsions:
REMARK  status: ('A' for Active; 'I' for Inactive)
REMARK    1  A    between atoms: N_1  and  CA_2
REMARK    2  A    between atoms: CA_2  and  CB_3
REMARK    3  A    between atoms: CA_2  and  C_13
REMARK    4  A    between atoms: CB_3  and  CG_4
REMARK    5  A    between atoms: C_13  and  OXT_15
REMARK                            x       y       z     vdW  Elec       q    Type
REMARK                         _______ _______ _______ _____ _____    ______ ____
ROOT
ATOM      1  CG  TRP A   1      19.741   7.301   9.361  0.00  0.00    -0.020 A 
ATOM      2  CD1 TRP A   1      19.551   8.594   9.839  0.00  0.00    +0.087 A 
ATOM      3  NE1 TRP A   1      18.267   8.769  10.230  0.00  0.00    -0.360 N 
ATOM      4  CE2 TRP A   1      17.645   7.601   9.991  0.00  0.00    +0.047 A 
ATOM      5  CZ2 TRP A   1      16.303   7.298  10.214  0.00  0.00    +0.026 A 
ATOM      6  CH2 TRP A   1      15.853   6.010   9.872  0.00  0.00    +0.002 A 
ATOM      7  CZ3 TRP A   1      16.745   5.065   9.318  0.00  0.00    +0.001 A 
ATOM      8  CE3 TRP A   1      18.094   5.399   9.103  0.00  0.00    +0.010 A 
ATOM      9  CD2 TRP A   1      18.511   6.682   9.457  0.00  0.00    +0.003 A 
ATOM     10  HE1 TRP A   1      17.846   9.640  10.621  0.00  0.00    +0.165 HD
ENDROOT
BRANCH   1  11
ATOM     11  CB  TRP A   1      21.004   6.742   8.769  0.00  0.00    +0.067 C 
BRANCH  11  12
ATOM     12  CA  TRP A   1      21.733   5.814   9.762  0.00  0.00    +0.165 C 
BRANCH  12  13
ATOM     13  N   TRP A   1      23.064   6.333  10.084  0.00  0.00    -0.318 NA
ATOM     14  H1  TRP A   1      23.395   5.877  10.966  0.00  0.00    +0.119 HD
ATOM     15  H2  TRP A   1      23.004   7.361  10.272  0.00  0.00    +0.119 HD
ENDBRANCH  12  13
BRANCH  12  16
ATOM     16  C   TRP A   1      21.853   4.418   9.215  0.00  0.00    +0.322 C 
ATOM     17  O   TRP A   1      22.675   3.605   9.717  0.00  0.00    -0.249 OA
BRANCH  16  18
ATOM     18  OXT TRP A   1      21.074   4.033   8.128  0.00  0.00    -0.479 OA
ATOM     19  HXT TRP A   1      21.021   4.609   7.297  0.00  0.00    +0.295 HD
ENDBRANCH  16  18
ENDBRANCH  12  16
ENDBRANCH  11  12
ENDBRANCH   1  11
TORSDOF 5
ENDMDL
MODEL 6
REMARK VINA RESULT:      -5.3     34.358     35.624
REMARK  Name = peptide_47_IYCKPIKHYG
REMARK  5 active torsions:
REMARK  status: ('A' for Active; 'I' for Inactive)
REMARK    1  A    between atoms: N_1  and  CA_2
REMARK    2  A    between atoms: CA_2  and  CB_3
REMARK    3  A    between atoms: CA_2  and  C_13
REMARK    4  A    between atoms: CB_3  and  CG_4
REMARK    5  A    between atoms: C_13  and  OXT_15
REMARK                            x       y       z     vdW  Elec       q    Type
REMARK                         _______ _______ _______ _____ _____    ______ ____
ROOT
ATOM      1  CG  TRP A   1      12.185  -4.002  42.262  0.00  0.00    -0.020 A 
ATOM      2  CD1 TRP A   1      11.190  -3.063  42.011  0.00  0.00    +0.087 A 
ATOM      3  NE1 TRP A   1       9.968  -3.596  42.244  0.00  0.00    -0.360 N 
ATOM      4  CE2 TRP A   1      10.185  -4.866  42.628  0.00  0.00    +0.047 A 
ATOM      5  CZ2 TRP A   1       9.227  -5.824  42.959  0.00  0.00    +0.026 A 
ATOM      6  CH2 TRP A   1       9.677  -7.108  43.316  0.00  0.00    +0.002 A 
ATOM      7  CZ3 TRP A   1      11.058  -7.404  43.331  0.00  0.00    +0.001 A 
ATOM      8  CE3 TRP A   1      12.002  -6.418  42.990  0.00  0.00    +0.010 A 
ATOM      9  CD2 TRP A   1      11.525  -5.153  42.646  0.00  0.00    +0.003 A 
ATOM     10  HE1 TRP A   1       9.047  -3.119  42.133  0.00  0.00    +0.165 HD
ENDROOT
BRANCH   1  11
ATOM     11  CB  TRP A   1      13.662  -3.821  42.052  0.00  0.00    +0.067 C 
BRANCH  11  12
ATOM     12  CA  TRP A   1      14.247  -2.771  43.018  0.00  0.00    +0.165 C 
BRANCH  12  13
ATOM     13  N   TRP A   1      15.212  -1.908  42.334  0.00  0.00    -0.318 NA
ATOM     14  H1  TRP A   1      16.044  -2.484  42.067  0.00  0.00    +0.119 HD
ATOM     15  H2  TRP A   1      15.548  -1.167  42.992  0.00  0.00    +0.119 HD
ENDBRANCH  12  13
BRANCH  12  16
ATOM     16  C   TRP A   1      14.906  -3.426  44.200  0.00  0.00    +0.322 C 
ATOM     17  O   TRP A   1      15.010  -4.681  44.258  0.00  0.00    -0.249 OA
BRANCH  16  18
ATOM     18  OXT TRP A   1      15.376  -2.644  45.251  0.00  0.00    -0.479 OA
ATOM     19  HXT TRP A   1      15.324  -1.632  45.209  0.00  0.00    +0.295 HD
ENDBRANCH  16  18
ENDBRANCH  12  16
ENDBRANCH  11  12
ENDBRANCH   1  11
TORSDOF 5
ENDMDL
MODEL 7
REMARK VINA RESULT:      -5.2     17.920     19.212
REMARK  Name = peptide_47_IYCKPIKHYG
REMARK  5 active torsions:
REMARK  status: ('A' for Active; 'I' for Inactive)
REMARK    1  A    between atoms: N_1  and  CA_2
REMARK    2  A    between atoms: CA_2  and  CB_3
REMARK    3  A    between atoms: CA_2  and  C_13
REMARK    4  A    between atoms: CB_3  and  CG_4
REMARK    5  A    between atoms: C_13  and  OXT_15
REMARK                            x       y       z     vdW  Elec       q    Type
REMARK                         _______ _______ _______ _____ _____    ______ ____
ROOT
ATOM      1  CG  TRP A   1       8.666   8.047  25.260  0.00  0.00    -0.020 A 
ATOM      2  CD1 TRP A   1       9.982   8.072  24.806  0.00  0.00    +0.087 A 
ATOM      3  NE1 TRP A   1      10.611   6.915  25.119  0.00  0.00    -0.360 N 
ATOM      4  CE2 TRP A   1       9.707   6.167  25.776  0.00  0.00    +0.047 A 
ATOM      5  CZ2 TRP A   1       9.895   4.896  26.316  0.00  0.00    +0.026 A 
ATOM      6  CH2 TRP A   1       8.811   4.298  26.985  0.00  0.00    +0.002 A 
ATOM      7  CZ3 TRP A   1       7.579   4.979  27.101  0.00  0.00    +0.001 A 
ATOM      8  CE3 TRP A   1       7.419   6.262  26.548  0.00  0.00    +0.010 A 
ATOM      9  CD2 TRP A   1       8.509   6.826  25.886  0.00  0.00    +0.003 A 
ATOM     10  HE1 TRP A   1      11.602   6.665  24.906  0.00  0.00    +0.165 HD
ENDROOT
BRANCH   1  11
ATOM     11  CB  TRP A   1       7.667   9.166  25.172  0.00  0.00    +0.067 C 
BRANCH  11  12
ATOM     12  CA  TRP A   1       6.895   9.133  23.837  0.00  0.00    +0.165 C 
BRANCH  12  13
ATOM     13  N   TRP A   1       6.541  10.486  23.403  0.00  0.00    -0.318 NA
ATOM     14  H1  TRP A   1       5.689  10.792  23.927  0.00  0.00    +0.119 HD
ATOM     15  H2  TRP A   1       6.291  10.473  22.387  0.00  0.00    +0.119 HD
ENDBRANCH  12  13
BRANCH  12  16
ATOM     16  C   TRP A   1       5.650   8.297  23.949  0.00  0.00    +0.322 C 
ATOM     17  O   TRP A   1       4.680   8.687  24.653  0.00  0.00    -0.249 OA
BRANCH  16  18
ATOM     18  OXT TRP A   1       5.582   7.069  23.296  0.00  0.00    -0.479 OA
ATOM     19  HXT TRP A   1       5.606   6.201  23.818  0.00  0.00    +0.295 HD
ENDBRANCH  16  18
ENDBRANCH  12  16
ENDBRANCH  11  12
ENDBRANCH   1  11
TORSDOF 5
ENDMDL
MODEL 8
REMARK VINA RESULT:      -5.2     18.570     20.038
REMARK  Name = peptide_47_IYCKPIKHYG
REMARK  5 active torsions:
REMARK  status: ('A' for Active; 'I' for Inactive)
REMARK    1  A    between atoms: N_1  and  CA_2
REMARK    2  A    between atoms: CA_2  and  CB_3
REMARK    3  A    between atoms: CA_2  and  C_13
REMARK    4  A    between atoms: CB_3  and  CG_4
REMARK    5  A    between atoms: C_13  and  OXT_15
REMARK                            x       y       z     vdW  Elec       q    Type
REMARK                         _______ _______ _______ _____ _____    ______ ____
ROOT
ATOM      1  CG  TRP A   1       8.408   8.020  25.252  0.00  0.00    -0.020 A 
ATOM      2  CD1 TRP A   1       9.753   8.298  25.026  0.00  0.00    +0.087 A 
ATOM      3  NE1 TRP A   1      10.528   7.293  25.495  0.00  0.00    -0.360 N 
ATOM      4  CE2 TRP A   1       9.684   6.391  26.026  0.00  0.00    +0.047 A 
ATOM      5  CZ2 TRP A   1      10.016   5.189  26.650  0.00  0.00    +0.026 A 
ATOM      6  CH2 TRP A   1       8.968   4.399  27.156  0.00  0.00    +0.002 A 
ATOM      7  CZ3 TRP A   1       7.627   4.824  27.030  0.00  0.00    +0.001 A 
ATOM      8  CE3 TRP A   1       7.322   6.042  26.397  0.00  0.00    +0.010 A 
ATOM      9  CD2 TRP A   1       8.382   6.801  25.901  0.00  0.00    +0.003 A 
ATOM     10  HE1 TRP A   1      11.570   7.241  25.463  0.00  0.00    +0.165 HD
ENDROOT
BRANCH   1  11
ATOM     11  CB  TRP A   1       7.243   8.918  24.944  0.00  0.00    +0.067 C 
BRANCH  11  12
ATOM     12  CA  TRP A   1       6.841   9.765  26.168  0.00  0.00    +0.165 C 
BRANCH  12  13
ATOM     13  N   TRP A   1       7.945   9.860  27.125  0.00  0.00    -0.318 NA
ATOM     14  H1  TRP A   1       8.839   9.652  26.624  0.00  0.00    +0.119 HD
ATOM     15  H2  TRP A   1       7.829   9.131  27.867  0.00  0.00    +0.119 HD
ENDBRANCH  12  13
BRANCH  12  16
ATOM     16  C   TRP A   1       5.628   9.195  26.850  0.00  0.00    +0.322 C 
ATOM     17  O   TRP A   1       4.775   8.539  26.193  0.00  0.00    -0.249 OA
BRANCH  16  18
ATOM     18  OXT TRP A   1       5.432   9.418  28.210  0.00  0.00    -0.479 OA
ATOM     19  HXT TRP A   1       4.503   9.582  28.581  0.00  0.00    +0.295 HD
ENDBRANCH  16  18
ENDBRANCH  12  16
ENDBRANCH  11  12
ENDBRANCH   1  11
TORSDOF 5
ENDMDL
MODEL 9
REMARK VINA RESULT:      -5.2     46.299     47.466
REMARK  Name = peptide_47_IYCKPIKHYG
REMARK  5 active torsions:
REMARK  status: ('A' for Active; 'I' for Inactive)
REMARK    1  A    between atoms: N_1  and  CA_2
REMARK    2  A    between atoms: CA_2  and  CB_3
REMARK    3  A    between atoms: CA_2  and  C_13
REMARK    4  A    between atoms: CB_3  and  CG_4
REMARK    5  A    between atoms: C_13  and  OXT_15
REMARK                            x       y       z     vdW  Elec       q    Type
REMARK                         _______ _______ _______ _____ _____    ______ ____
ROOT
ATOM      1  CG  TRP A   1      -8.617  -1.103  48.005  0.00  0.00    -0.020 A 
ATOM      2  CD1 TRP A   1      -8.303  -2.454  48.121  0.00  0.00    +0.087 A 
ATOM      3  NE1 TRP A   1      -6.968  -2.618  48.269  0.00  0.00    -0.360 N 
ATOM      4  CE2 TRP A   1      -6.437  -1.383  48.235  0.00  0.00    +0.047 A 
ATOM      5  CZ2 TRP A   1      -5.089  -1.040  48.330  0.00  0.00    +0.026 A 
ATOM      6  CH2 TRP A   1      -4.750   0.323  48.251  0.00  0.00    +0.002 A 
ATOM      7  CZ3 TRP A   1      -5.754   1.301  48.078  0.00  0.00    +0.001 A 
ATOM      8  CE3 TRP A   1      -7.106   0.926  47.984  0.00  0.00    +0.010 A 
ATOM      9  CD2 TRP A   1      -7.411  -0.432  48.071  0.00  0.00    +0.003 A 
ATOM     10  HE1 TRP A   1      -6.457  -3.522  48.372  0.00  0.00    +0.165 HD
ENDROOT
BRANCH   1  11
ATOM     11  CB  TRP A   1      -9.978  -0.518  47.755  0.00  0.00    +0.067 C 
BRANCH  11  12
ATOM     12  CA  TRP A   1     -10.910  -1.528  47.056  0.00  0.00    +0.165 C 
BRANCH  12  13
ATOM     13  N   TRP A   1     -11.453  -0.969  45.816  0.00  0.00    -0.318 NA
ATOM     14  H1  TRP A   1     -11.032  -1.481  45.007  0.00  0.00    +0.119 HD
ATOM     15  H2  TRP A   1     -11.167   0.034  45.729  0.00  0.00    +0.119 HD
ENDBRANCH  12  13
BRANCH  12  16
ATOM     16  C   TRP A   1     -12.038  -1.944  47.959  0.00  0.00    +0.322 C 
ATOM     17  O   TRP A   1     -13.131  -1.316  47.946  0.00  0.00    -0.249 OA
BRANCH  16  18
ATOM     18  OXT TRP A   1     -11.862  -3.010  48.836  0.00  0.00    -0.479 OA
ATOM     19  HXT TRP A   1     -11.179  -3.734  48.645  0.00  0.00    +0.295 HD
ENDBRANCH  16  18
ENDBRANCH  12  16
ENDBRANCH  11  12
ENDBRANCH   1  11
TORSDOF 5
ENDMDL
