MODEL 1
REMARK VINA RESULT:      -6.2      0.000      0.000
REMARK  Name = peptide_48_WKRFKQPCYD
REMARK  5 active torsions:
REMARK  status: ('A' for Active; 'I' for Inactive)
REMARK    1  A    between atoms: N_1  and  CA_2
REMARK    2  A    between atoms: CA_2  and  CB_3
REMARK    3  A    between atoms: CA_2  and  C_13
REMARK    4  A    between atoms: CB_3  and  CG_4
REMARK    5  A    between atoms: C_13  and  OXT_15
REMARK                            x       y       z     vdW  Elec       q    Type
REMARK                         _______ _______ _______ _____ _____    ______ ____
ROOT
ATOM      1  CG  TRP A   1      18.346   5.310   9.121  0.00  0.00    -0.020 A 
ATOM      2  CD1 TRP A   1      18.136   3.935   9.109  0.00  0.00    +0.087 A 
ATOM      3  NE1 TRP A   1      19.317   3.277   9.149  0.00  0.00    -0.360 N 
ATOM      4  CE2 TRP A   1      20.270   4.225   9.173  0.00  0.00    +0.047 A 
ATOM      5  CZ2 TRP A   1      21.651   4.036   9.198  0.00  0.00    +0.026 A 
ATOM      6  CH2 TRP A   1      22.472   5.178   9.201  0.00  0.00    +0.002 A 
ATOM      7  CZ3 TRP A   1      21.901   6.470   9.176  0.00  0.00    +0.001 A 
ATOM      8  CE3 TRP A   1      20.504   6.631   9.149  0.00  0.00    +0.010 A 
ATOM      9  CD2 TRP A   1      19.716   5.480   9.153  0.00  0.00    +0.003 A 
ATOM     10  HE1 TRP A   1      19.457   2.242   9.145  0.00  0.00    +0.165 HD
ENDROOT
BRANCH   1  11
ATOM     11  CB  TRP A   1      17.294   6.378   9.014  0.00  0.00    +0.067 C 
BRANCH  11  12
ATOM     12  CA  TRP A   1      16.183   6.186  10.066  0.00  0.00    +0.165 C 
BRANCH  12  13
ATOM     13  N   TRP A   1      14.990   6.959   9.715  0.00  0.00    -0.318 NA
ATOM     14  H1  TRP A   1      14.720   6.726   8.731  0.00  0.00    +0.119 HD
ATOM     15  H2  TRP A   1      15.215   7.981   9.739  0.00  0.00    +0.119 HD
ENDBRANCH  12  13
BRANCH  12  16
ATOM     16  C   TRP A   1      16.656   6.583  11.437  0.00  0.00    +0.322 C 
ATOM     17  O   TRP A   1      17.358   7.618  11.595  0.00  0.00    -0.249 OA
BRANCH  16  18
ATOM     18  OXT TRP A   1      16.343   5.785  12.533  0.00  0.00    -0.479 OA
ATOM     19  HXT TRP A   1      16.577   4.799  12.542  0.00  0.00    +0.295 HD
ENDBRANCH  16  18
ENDBRANCH  12  16
ENDBRANCH  11  12
ENDBRANCH   1  11
TORSDOF 5
ENDMDL
MODEL 2
REMARK VINA RESULT:      -6.2     46.079     47.383
REMARK  Name = peptide_48_WKRFKQPCYD
REMARK  5 active torsions:
REMARK  status: ('A' for Active; 'I' for Inactive)
REMARK    1  A    between atoms: N_1  and  CA_2
REMARK    2  A    between atoms: CA_2  and  CB_3
REMARK    3  A    between atoms: CA_2  and  C_13
REMARK    4  A    between atoms: CB_3  and  CG_4
REMARK    5  A    between atoms: C_13  and  OXT_15
REMARK                            x       y       z     vdW  Elec       q    Type
REMARK                         _______ _______ _______ _____ _____    ______ ____
ROOT
ATOM      1  CG  TRP A   1      -9.473  -0.153  47.873  0.00  0.00    -0.020 A 
ATOM      2  CD1 TRP A   1      -9.825   1.193  47.846  0.00  0.00    +0.087 A 
ATOM      3  NE1 TRP A   1      -8.720   1.971  47.925  0.00  0.00    -0.360 N 
ATOM      4  CE2 TRP A   1      -7.678   1.127  48.014  0.00  0.00    +0.047 A 
ATOM      5  CZ2 TRP A   1      -6.329   1.459  48.134  0.00  0.00    +0.026 A 
ATOM      6  CH2 TRP A   1      -5.398   0.409  48.233  0.00  0.00    +0.002 A 
ATOM      7  CZ3 TRP A   1      -5.832  -0.935  48.211  0.00  0.00    +0.001 A 
ATOM      8  CE3 TRP A   1      -7.200  -1.241  48.091  0.00  0.00    +0.010 A 
ATOM      9  CD2 TRP A   1      -8.097  -0.178  47.990  0.00  0.00    +0.003 A 
ATOM     10  HE1 TRP A   1      -8.690   3.014  47.932  0.00  0.00    +0.165 HD
ENDROOT
BRANCH   1  11
ATOM     11  CB  TRP A   1     -10.414  -1.324  47.879  0.00  0.00    +0.067 C 
BRANCH  11  12
ATOM     12  CA  TRP A   1     -11.711  -1.015  47.103  0.00  0.00    +0.165 C 
BRANCH  12  13
ATOM     13  N   TRP A   1     -12.887  -1.483  47.840  0.00  0.00    -0.318 NA
ATOM     14  H1  TRP A   1     -13.696  -1.530  47.178  0.00  0.00    +0.119 HD
ATOM     15  H2  TRP A   1     -13.134  -0.788  48.582  0.00  0.00    +0.119 HD
ENDBRANCH  12  13
BRANCH  12  16
ATOM     16  C   TRP A   1     -11.689  -1.639  45.736  0.00  0.00    +0.322 C 
ATOM     17  O   TRP A   1     -11.714  -2.892  45.606  0.00  0.00    -0.249 OA
BRANCH  16  18
ATOM     18  OXT TRP A   1     -11.611  -0.827  44.607  0.00  0.00    -0.479 OA
ATOM     19  HXT TRP A   1     -11.886   0.148  44.648  0.00  0.00    +0.295 HD
ENDBRANCH  16  18
ENDBRANCH  12  16
ENDBRANCH  11  12
ENDBRANCH   1  11
TORSDOF 5
ENDMDL
MODEL 3
REMARK VINA RESULT:      -5.2     21.631     23.071
REMARK  Name = peptide_48_WKRFKQPCYD
REMARK  5 active torsions:
REMARK  status: ('A' for Active; 'I' for Inactive)
REMARK    1  A    between atoms: N_1  and  CA_2
REMARK    2  A    between atoms: CA_2  and  CB_3
REMARK    3  A    between atoms: CA_2  and  C_13
REMARK    4  A    between atoms: CB_3  and  CG_4
REMARK    5  A    between atoms: C_13  and  OXT_15
REMARK                            x       y       z     vdW  Elec       q    Type
REMARK                         _______ _______ _______ _____ _____    ______ ____
ROOT
ATOM      1  CG  TRP A   1       2.555  -0.131  24.194  0.00  0.00    -0.020 A 
ATOM      2  CD1 TRP A   1       3.610   0.774  24.136  0.00  0.00    +0.087 A 
ATOM      3  NE1 TRP A   1       4.794   0.125  24.221  0.00  0.00    -0.360 N 
ATOM      4  CE2 TRP A   1       4.493  -1.180  24.344  0.00  0.00    +0.047 A 
ATOM      5  CZ2 TRP A   1       5.385  -2.243  24.483  0.00  0.00    +0.026 A 
ATOM      6  CH2 TRP A   1       4.849  -3.537  24.618  0.00  0.00    +0.002 A 
ATOM      7  CZ3 TRP A   1       3.451  -3.737  24.614  0.00  0.00    +0.001 A 
ATOM      8  CE3 TRP A   1       2.575  -2.645  24.474  0.00  0.00    +0.010 A 
ATOM      9  CD2 TRP A   1       3.136  -1.376  24.336  0.00  0.00    +0.003 A 
ATOM     10  HE1 TRP A   1       5.745   0.555  24.208  0.00  0.00    +0.165 HD
ENDROOT
BRANCH   1  11
ATOM     11  CB  TRP A   1       1.089   0.202  24.205  0.00  0.00    +0.067 C 
BRANCH  11  12
ATOM     12  CA  TRP A   1       0.729   1.139  25.374  0.00  0.00    +0.165 C 
BRANCH  12  13
ATOM     13  N   TRP A   1       0.168   0.386  26.497  0.00  0.00    -0.318 NA
ATOM     14  H1  TRP A   1       0.498  -0.605  26.431  0.00  0.00    +0.119 HD
ATOM     15  H2  TRP A   1      -0.876   0.370  26.422  0.00  0.00    +0.119 HD
ENDBRANCH  12  13
BRANCH  12  16
ATOM     16  C   TRP A   1      -0.245   2.201  24.942  0.00  0.00    +0.322 C 
ATOM     17  O   TRP A   1      -1.437   2.178  25.351  0.00  0.00    -0.249 OA
BRANCH  16  18
ATOM     18  OXT TRP A   1       0.165   3.196  24.059  0.00  0.00    -0.479 OA
ATOM     19  HXT TRP A   1       0.994   3.075  23.489  0.00  0.00    +0.295 HD
ENDBRANCH  16  18
ENDBRANCH  12  16
ENDBRANCH  11  12
ENDBRANCH   1  11
TORSDOF 5
ENDMDL
MODEL 4
REMARK VINA RESULT:      -5.1     21.440     22.945
REMARK  Name = peptide_48_WKRFKQPCYD
REMARK  5 active torsions:
REMARK  status: ('A' for Active; 'I' for Inactive)
REMARK    1  A    between atoms: N_1  and  CA_2
REMARK    2  A    between atoms: CA_2  and  CB_3
REMARK    3  A    between atoms: CA_2  and  C_13
REMARK    4  A    between atoms: CB_3  and  CG_4
REMARK    5  A    between atoms: C_13  and  OXT_15
REMARK                            x       y       z     vdW  Elec       q    Type
REMARK                         _______ _______ _______ _____ _____    ______ ____
ROOT
ATOM      1  CG  TRP A   1       4.527  -1.932  24.873  0.00  0.00    -0.020 A 
ATOM      2  CD1 TRP A   1       5.601  -1.074  24.658  0.00  0.00    +0.087 A 
ATOM      3  NE1 TRP A   1       5.176   0.086  24.107  0.00  0.00    -0.360 N 
ATOM      4  CE2 TRP A   1       3.845  -0.038  23.962  0.00  0.00    +0.047 A 
ATOM      5  CZ2 TRP A   1       2.964   0.895  23.418  0.00  0.00    +0.026 A 
ATOM      6  CH2 TRP A   1       1.602   0.549  23.344  0.00  0.00    +0.002 A 
ATOM      7  CZ3 TRP A   1       1.158  -0.710  23.806  0.00  0.00    +0.001 A 
ATOM      8  CE3 TRP A   1       2.070  -1.632  24.348  0.00  0.00    +0.010 A 
ATOM      9  CD2 TRP A   1       3.412  -1.258  24.414  0.00  0.00    +0.003 A 
ATOM     10  HE1 TRP A   1       5.767   0.903  23.837  0.00  0.00    +0.165 HD
ENDROOT
BRANCH   1  11
ATOM     11  CB  TRP A   1       4.594  -3.338  25.399  0.00  0.00    +0.067 C 
BRANCH  11  12
ATOM     12  CA  TRP A   1       5.885  -3.580  26.207  0.00  0.00    +0.165 C 
BRANCH  12  13
ATOM     13  N   TRP A   1       6.427  -4.915  25.944  0.00  0.00    -0.318 NA
ATOM     14  H1  TRP A   1       6.368  -5.478  26.824  0.00  0.00    +0.119 HD
ATOM     15  H2  TRP A   1       7.440  -4.838  25.693  0.00  0.00    +0.119 HD
ENDBRANCH  12  13
BRANCH  12  16
ATOM     16  C   TRP A   1       5.644  -3.415  27.682  0.00  0.00    +0.322 C 
ATOM     17  O   TRP A   1       5.492  -4.425  28.421  0.00  0.00    -0.249 OA
BRANCH  16  18
ATOM     18  OXT TRP A   1       5.557  -2.138  28.229  0.00  0.00    -0.479 OA
ATOM     19  HXT TRP A   1       5.199  -1.998  29.167  0.00  0.00    +0.295 HD
ENDBRANCH  16  18
ENDBRANCH  12  16
ENDBRANCH  11  12
ENDBRANCH   1  11
TORSDOF 5
ENDMDL
MODEL 5
REMARK VINA RESULT:      -5.0      1.997      2.573
REMARK  Name = peptide_48_WKRFKQPCYD
REMARK  5 active torsions:
REMARK  status: ('A' for Active; 'I' for Inactive)
REMARK    1  A    between atoms: N_1  and  CA_2
REMARK    2  A    between atoms: CA_2  and  CB_3
REMARK    3  A    between atoms: CA_2  and  C_13
REMARK    4  A    between atoms: CB_3  and  CG_4
REMARK    5  A    between atoms: C_13  and  OXT_15
REMARK                            x       y       z     vdW  Elec       q    Type
REMARK                         _______ _______ _______ _____ _____    ______ ____
ROOT
ATOM      1  CG  TRP A   1      18.748   6.476   9.675  0.00  0.00    -0.020 A 
ATOM      2  CD1 TRP A   1      19.092   7.821   9.576  0.00  0.00    +0.087 A 
ATOM      3  NE1 TRP A   1      20.398   7.952   9.247  0.00  0.00    -0.360 N 
ATOM      4  CE2 TRP A   1      20.882   6.701   9.149  0.00  0.00    +0.047 A 
ATOM      5  CZ2 TRP A   1      22.190   6.323   8.848  0.00  0.00    +0.026 A 
ATOM      6  CH2 TRP A   1      22.487   4.948   8.818  0.00  0.00    +0.002 A 
ATOM      7  CZ3 TRP A   1      21.482   3.993   9.088  0.00  0.00    +0.001 A 
ATOM      8  CE3 TRP A   1      20.171   4.404   9.391  0.00  0.00    +0.010 A 
ATOM      9  CD2 TRP A   1      19.907   5.773   9.408  0.00  0.00    +0.003 A 
ATOM     10  HE1 TRP A   1      20.922   8.844   9.112  0.00  0.00    +0.165 HD
ENDROOT
BRANCH   1  11
ATOM     11  CB  TRP A   1      17.415   5.921  10.090  0.00  0.00    +0.067 C 
BRANCH  11  12
ATOM     12  CA  TRP A   1      16.762   6.778  11.193  0.00  0.00    +0.165 C 
BRANCH  12  13
ATOM     13  N   TRP A   1      16.386   5.953  12.343  0.00  0.00    -0.318 NA
ATOM     14  H1  TRP A   1      17.168   5.289  12.547  0.00  0.00    +0.119 HD
ATOM     15  H2  TRP A   1      15.546   5.377  12.102  0.00  0.00    +0.119 HD
ENDBRANCH  12  13
BRANCH  12  16
ATOM     16  C   TRP A   1      15.552   7.504  10.675  0.00  0.00    +0.322 C 
ATOM     17  O   TRP A   1      15.132   8.540  11.256  0.00  0.00    -0.249 OA
BRANCH  16  18
ATOM     18  OXT TRP A   1      14.873   7.010   9.564  0.00  0.00    -0.479 OA
ATOM     19  HXT TRP A   1      14.940   6.032   9.307  0.00  0.00    +0.295 HD
ENDBRANCH  16  18
ENDBRANCH  12  16
ENDBRANCH  11  12
ENDBRANCH   1  11
TORSDOF 5
ENDMDL
MODEL 6
REMARK VINA RESULT:      -4.8     14.262     15.797
REMARK  Name = peptide_48_WKRFKQPCYD
REMARK  5 active torsions:
REMARK  status: ('A' for Active; 'I' for Inactive)
REMARK    1  A    between atoms: N_1  and  CA_2
REMARK    2  A    between atoms: CA_2  and  CB_3
REMARK    3  A    between atoms: CA_2  and  C_13
REMARK    4  A    between atoms: CB_3  and  CG_4
REMARK    5  A    between atoms: C_13  and  OXT_15
REMARK                            x       y       z     vdW  Elec       q    Type
REMARK                         _______ _______ _______ _____ _____    ______ ____
ROOT
ATOM      1  CG  TRP A   1       5.816  -1.986  11.953  0.00  0.00    -0.020 A 
ATOM      2  CD1 TRP A   1       6.984  -2.054  11.199  0.00  0.00    +0.087 A 
ATOM      3  NE1 TRP A   1       6.690  -2.127   9.880  0.00  0.00    -0.360 N 
ATOM      4  CE2 TRP A   1       5.348  -2.118   9.798  0.00  0.00    +0.047 A 
ATOM      5  CZ2 TRP A   1       4.571  -2.196   8.643  0.00  0.00    +0.026 A 
ATOM      6  CH2 TRP A   1       3.172  -2.190   8.788  0.00  0.00    +0.002 A 
ATOM      7  CZ3 TRP A   1       2.587  -2.110  10.072  0.00  0.00    +0.001 A 
ATOM      8  CE3 TRP A   1       3.396  -2.034  11.220  0.00  0.00    +0.010 A 
ATOM      9  CD2 TRP A   1       4.779  -2.037  11.043  0.00  0.00    +0.003 A 
ATOM     10  HE1 TRP A   1       7.370  -2.194   9.091  0.00  0.00    +0.165 HD
ENDROOT
BRANCH   1  11
ATOM     11  CB  TRP A   1       5.719  -1.966  13.452  0.00  0.00    +0.067 C 
BRANCH  11  12
ATOM     12  CA  TRP A   1       7.111  -1.879  14.110  0.00  0.00    +0.165 C 
BRANCH  12  13
ATOM     13  N   TRP A   1       7.478  -3.154  14.730  0.00  0.00    -0.318 NA
ATOM     14  H1  TRP A   1       7.050  -3.197  15.683  0.00  0.00    +0.119 HD
ATOM     15  H2  TRP A   1       8.517  -3.196  14.855  0.00  0.00    +0.119 HD
ENDBRANCH  12  13
BRANCH  12  16
ATOM     16  C   TRP A   1       7.159  -0.785  15.140  0.00  0.00    +0.322 C 
ATOM     17  O   TRP A   1       7.686  -0.991  16.267  0.00  0.00    -0.249 OA
BRANCH  16  18
ATOM     18  OXT TRP A   1       6.590   0.454  14.859  0.00  0.00    -0.479 OA
ATOM     19  HXT TRP A   1       5.693   0.715  15.250  0.00  0.00    +0.295 HD
ENDBRANCH  16  18
ENDBRANCH  12  16
ENDBRANCH  11  12
ENDBRANCH   1  11
TORSDOF 5
ENDMDL
MODEL 7
REMARK VINA RESULT:      -4.8     14.334     16.695
REMARK  Name = peptide_48_WKRFKQPCYD
REMARK  5 active torsions:
REMARK  status: ('A' for Active; 'I' for Inactive)
REMARK    1  A    between atoms: N_1  and  CA_2
REMARK    2  A    between atoms: CA_2  and  CB_3
REMARK    3  A    between atoms: CA_2  and  C_13
REMARK    4  A    between atoms: CB_3  and  CG_4
REMARK    5  A    between atoms: C_13  and  OXT_15
REMARK                            x       y       z     vdW  Elec       q    Type
REMARK                         _______ _______ _______ _____ _____    ______ ____
ROOT
ATOM      1  CG  TRP A   1       4.784  -3.018   9.927  0.00  0.00    -0.020 A 
ATOM      2  CD1 TRP A   1       4.405  -3.186  11.255  0.00  0.00    +0.087 A 
ATOM      3  NE1 TRP A   1       3.230  -2.561  11.494  0.00  0.00    -0.360 N 
ATOM      4  CE2 TRP A   1       2.870  -1.990  10.331  0.00  0.00    +0.047 A 
ATOM      5  CZ2 TRP A   1       1.736  -1.218  10.083  0.00  0.00    +0.026 A 
ATOM      6  CH2 TRP A   1       1.563  -0.698   8.787  0.00  0.00    +0.002 A 
ATOM      7  CZ3 TRP A   1       2.520  -0.956   7.780  0.00  0.00    +0.001 A 
ATOM      8  CE3 TRP A   1       3.656  -1.737   8.059  0.00  0.00    +0.010 A 
ATOM      9  CD2 TRP A   1       3.796  -2.243   9.351  0.00  0.00    +0.003 A 
ATOM     10  HE1 TRP A   1       2.717  -2.519  12.402  0.00  0.00    +0.165 HD
ENDROOT
BRANCH   1  11
ATOM     11  CB  TRP A   1       6.058  -3.497   9.290  0.00  0.00    +0.067 C 
BRANCH  11  12
ATOM     12  CA  TRP A   1       7.298  -2.889   9.977  0.00  0.00    +0.165 C 
BRANCH  12  13
ATOM     13  N   TRP A   1       7.311  -1.431   9.841  0.00  0.00    -0.318 NA
ATOM     14  H1  TRP A   1       8.295  -1.121   9.668  0.00  0.00    +0.119 HD
ATOM     15  H2  TRP A   1       7.002  -0.993  10.740  0.00  0.00    +0.119 HD
ENDBRANCH  12  13
BRANCH  12  16
ATOM     16  C   TRP A   1       8.569  -3.460   9.411  0.00  0.00    +0.322 C 
ATOM     17  O   TRP A   1       9.641  -3.408  10.071  0.00  0.00    -0.249 OA
BRANCH  16  18
ATOM     18  OXT TRP A   1       8.566  -4.022   8.138  0.00  0.00    -0.479 OA
ATOM     19  HXT TRP A   1       9.311  -3.822   7.480  0.00  0.00    +0.295 HD
ENDBRANCH  16  18
ENDBRANCH  12  16
ENDBRANCH  11  12
ENDBRANCH   1  11
TORSDOF 5
ENDMDL
MODEL 8
REMARK VINA RESULT:      -4.8     45.523     46.760
REMARK  Name = peptide_48_WKRFKQPCYD
REMARK  5 active torsions:
REMARK  status: ('A' for Active; 'I' for Inactive)
REMARK    1  A    between atoms: N_1  and  CA_2
REMARK    2  A    between atoms: CA_2  and  CB_3
REMARK    3  A    between atoms: CA_2  and  C_13
REMARK    4  A    between atoms: CB_3  and  CG_4
REMARK    5  A    between atoms: C_13  and  OXT_15
REMARK                            x       y       z     vdW  Elec       q    Type
REMARK                         _______ _______ _______ _____ _____    ______ ____
ROOT
ATOM      1  CG  TRP A   1      -6.932   0.084  48.414  0.00  0.00    -0.020 A 
ATOM      2  CD1 TRP A   1      -6.188   1.201  48.045  0.00  0.00    +0.087 A 
ATOM      3  NE1 TRP A   1      -4.872   0.893  47.985  0.00  0.00    -0.360 N 
ATOM      4  CE2 TRP A   1      -4.779  -0.405  48.323  0.00  0.00    +0.047 A 
ATOM      5  CZ2 TRP A   1      -3.619  -1.172  48.422  0.00  0.00    +0.026 A 
ATOM      6  CH2 TRP A   1      -3.750  -2.516  48.815  0.00  0.00    +0.002 A 
ATOM      7  CZ3 TRP A   1      -5.023  -3.057  49.100  0.00  0.00    +0.001 A 
ATOM      8  CE3 TRP A   1      -6.176  -2.260  48.994  0.00  0.00    +0.010 A 
ATOM      9  CD2 TRP A   1      -6.015  -0.932  48.597  0.00  0.00    +0.003 A 
ATOM     10  HE1 TRP A   1      -4.089   1.539  47.740  0.00  0.00    +0.165 HD
ENDROOT
BRANCH   1  11
ATOM     11  CB  TRP A   1      -8.413   0.036  48.660  0.00  0.00    +0.067 C 
BRANCH  11  12
ATOM     12  CA  TRP A   1      -9.210   0.456  47.408  0.00  0.00    +0.165 C 
BRANCH  12  13
ATOM     13  N   TRP A   1      -9.346   1.912  47.337  0.00  0.00    -0.318 NA
ATOM     14  H1  TRP A   1     -10.239   2.140  46.843  0.00  0.00    +0.119 HD
ATOM     15  H2  TRP A   1      -8.565   2.309  46.763  0.00  0.00    +0.119 HD
ENDBRANCH  12  13
BRANCH  12  16
ATOM     16  C   TRP A   1     -10.573  -0.180  47.392  0.00  0.00    +0.322 C 
ATOM     17  O   TRP A   1     -11.208  -0.355  48.466  0.00  0.00    -0.249 OA
BRANCH  16  18
ATOM     18  OXT TRP A   1     -11.122  -0.605  46.185  0.00  0.00    -0.479 OA
ATOM     19  HXT TRP A   1     -11.203  -1.592  45.971  0.00  0.00    +0.295 HD
ENDBRANCH  16  18
ENDBRANCH  12  16
ENDBRANCH  11  12
ENDBRANCH   1  11
TORSDOF 5
ENDMDL
MODEL 9
REMARK VINA RESULT:      -4.6     18.462     19.204
REMARK  Name = peptide_48_WKRFKQPCYD
REMARK  5 active torsions:
REMARK  status: ('A' for Active; 'I' for Inactive)
REMARK    1  A    between atoms: N_1  and  CA_2
REMARK    2  A    between atoms: CA_2  and  CB_3
REMARK    3  A    between atoms: CA_2  and  C_13
REMARK    4  A    between atoms: CB_3  and  CG_4
REMARK    5  A    between atoms: C_13  and  OXT_15
REMARK                            x       y       z     vdW  Elec       q    Type
REMARK                         _______ _______ _______ _____ _____    ______ ____
ROOT
ATOM      1  CG  TRP A   1      -0.489   2.133  10.092  0.00  0.00    -0.020 A 
ATOM      2  CD1 TRP A   1      -0.834   1.873  11.415  0.00  0.00    +0.087 A 
ATOM      3  NE1 TRP A   1      -0.268   0.717  11.832  0.00  0.00    -0.360 N 
ATOM      4  CE2 TRP A   1       0.421   0.241  10.780  0.00  0.00    +0.047 A 
ATOM      5  CZ2 TRP A   1       1.158  -0.941  10.718  0.00  0.00    +0.026 A 
ATOM      6  CH2 TRP A   1       1.789  -1.260   9.501  0.00  0.00    +0.002 A 
ATOM      7  CZ3 TRP A   1       1.668  -0.401   8.386  0.00  0.00    +0.001 A 
ATOM      8  CE3 TRP A   1       0.916   0.784   8.477  0.00  0.00    +0.010 A 
ATOM      9  CD2 TRP A   1       0.307   1.075   9.698  0.00  0.00    +0.003 A 
ATOM     10  HE1 TRP A   1      -0.363   0.279  12.774  0.00  0.00    +0.165 HD
ENDROOT
BRANCH   1  11
ATOM     11  CB  TRP A   1      -0.974   3.278   9.248  0.00  0.00    +0.067 C 
BRANCH  11  12
ATOM     12  CA  TRP A   1      -0.882   4.619  10.004  0.00  0.00    +0.165 C 
BRANCH  12  13
ATOM     13  N   TRP A   1      -2.215   5.167  10.263  0.00  0.00    -0.318 NA
ATOM     14  H1  TRP A   1      -2.674   5.373   9.346  0.00  0.00    +0.119 HD
ATOM     15  H2  TRP A   1      -2.127   6.076  10.775  0.00  0.00    +0.119 HD
ENDBRANCH  12  13
BRANCH  12  16
ATOM     16  C   TRP A   1      -0.063   5.621   9.239  0.00  0.00    +0.322 C 
ATOM     17  O   TRP A   1       0.739   6.384   9.842  0.00  0.00    -0.249 OA
BRANCH  16  18
ATOM     18  OXT TRP A   1      -0.216   5.728   7.859  0.00  0.00    -0.479 OA
ATOM     19  HXT TRP A   1       0.591   5.721   7.246  0.00  0.00    +0.295 HD
ENDBRANCH  16  18
ENDBRANCH  12  16
ENDBRANCH  11  12
ENDBRANCH   1  11
TORSDOF 5
ENDMDL
