MODEL 1
REMARK VINA RESULT:      -6.2      0.000      0.000
REMARK  Name = peptide_8_EIFVGTWEDR
REMARK  5 active torsions:
REMARK  status: ('A' for Active; 'I' for Inactive)
REMARK    1  A    between atoms: N_1  and  CA_2
REMARK    2  A    between atoms: CA_2  and  CB_3
REMARK    3  A    between atoms: CA_2  and  C_13
REMARK    4  A    between atoms: CB_3  and  CG_4
REMARK    5  A    between atoms: C_13  and  OXT_15
REMARK                            x       y       z     vdW  Elec       q    Type
REMARK                         _______ _______ _______ _____ _____    ______ ____
ROOT
ATOM      1  CG  TRP A   1      18.347   5.317   9.122  0.00  0.00    -0.020 A 
ATOM      2  CD1 TRP A   1      18.131   3.942   9.107  0.00  0.00    +0.087 A 
ATOM      3  NE1 TRP A   1      19.310   3.279   9.145  0.00  0.00    -0.360 N 
ATOM      4  CE2 TRP A   1      20.267   4.224   9.170  0.00  0.00    +0.047 A 
ATOM      5  CZ2 TRP A   1      21.647   4.029   9.193  0.00  0.00    +0.026 A 
ATOM      6  CH2 TRP A   1      22.473   5.169   9.198  0.00  0.00    +0.002 A 
ATOM      7  CZ3 TRP A   1      21.906   6.462   9.176  0.00  0.00    +0.001 A 
ATOM      8  CE3 TRP A   1      20.510   6.629   9.151  0.00  0.00    +0.010 A 
ATOM      9  CD2 TRP A   1      19.718   5.481   9.153  0.00  0.00    +0.003 A 
ATOM     10  HE1 TRP A   1      19.446   2.244   9.139  0.00  0.00    +0.165 HD
ENDROOT
BRANCH   1  11
ATOM     11  CB  TRP A   1      17.299   6.389   9.019  0.00  0.00    +0.067 C 
BRANCH  11  12
ATOM     12  CA  TRP A   1      16.182   6.193  10.064  0.00  0.00    +0.165 C 
BRANCH  12  13
ATOM     13  N   TRP A   1      14.988   6.960   9.705  0.00  0.00    -0.318 NA
ATOM     14  H1  TRP A   1      15.278   7.935   9.461  0.00  0.00    +0.119 HD
ATOM     15  H2  TRP A   1      14.351   7.025  10.533  0.00  0.00    +0.119 HD
ENDBRANCH  12  13
BRANCH  12  16
ATOM     16  C   TRP A   1      16.645   6.593  11.437  0.00  0.00    +0.322 C 
ATOM     17  O   TRP A   1      17.331   7.638  11.600  0.00  0.00    -0.249 OA
BRANCH  16  18
ATOM     18  OXT TRP A   1      16.341   5.788  12.531  0.00  0.00    -0.479 OA
ATOM     19  HXT TRP A   1      15.504   5.216  12.538  0.00  0.00    +0.295 HD
ENDBRANCH  16  18
ENDBRANCH  12  16
ENDBRANCH  11  12
ENDBRANCH   1  11
TORSDOF 5
ENDMDL
MODEL 2
REMARK VINA RESULT:      -6.1     46.064     47.306
REMARK  Name = peptide_8_EIFVGTWEDR
REMARK  5 active torsions:
REMARK  status: ('A' for Active; 'I' for Inactive)
REMARK    1  A    between atoms: N_1  and  CA_2
REMARK    2  A    between atoms: CA_2  and  CB_3
REMARK    3  A    between atoms: CA_2  and  C_13
REMARK    4  A    between atoms: CB_3  and  CG_4
REMARK    5  A    between atoms: C_13  and  OXT_15
REMARK                            x       y       z     vdW  Elec       q    Type
REMARK                         _______ _______ _______ _____ _____    ______ ____
ROOT
ATOM      1  CG  TRP A   1      -9.361  -0.242  47.788  0.00  0.00    -0.020 A 
ATOM      2  CD1 TRP A   1      -9.765   1.089  47.778  0.00  0.00    +0.087 A 
ATOM      3  NE1 TRP A   1      -8.696   1.908  47.904  0.00  0.00    -0.360 N 
ATOM      4  CE2 TRP A   1      -7.623   1.104  48.006  0.00  0.00    +0.047 A 
ATOM      5  CZ2 TRP A   1      -6.292   1.487  48.171  0.00  0.00    +0.026 A 
ATOM      6  CH2 TRP A   1      -5.323   0.473  48.276  0.00  0.00    +0.002 A 
ATOM      7  CZ3 TRP A   1      -5.702  -0.887  48.215  0.00  0.00    +0.001 A 
ATOM      8  CE3 TRP A   1      -7.052  -1.244  48.049  0.00  0.00    +0.010 A 
ATOM      9  CD2 TRP A   1      -7.989  -0.216  47.943  0.00  0.00    +0.003 A 
ATOM     10  HE1 TRP A   1      -8.707   2.952  47.932  0.00  0.00    +0.165 HD
ENDROOT
BRANCH   1  11
ATOM     11  CB  TRP A   1     -10.254  -1.450  47.743  0.00  0.00    +0.067 C 
BRANCH  11  12
ATOM     12  CA  TRP A   1     -11.596  -1.137  47.052  0.00  0.00    +0.165 C 
BRANCH  12  13
ATOM     13  N   TRP A   1     -12.720  -1.668  47.827  0.00  0.00    -0.318 NA
ATOM     14  H1  TRP A   1     -13.611  -1.327  47.396  0.00  0.00    +0.119 HD
ATOM     15  H2  TRP A   1     -12.683  -1.289  48.802  0.00  0.00    +0.119 HD
ENDBRANCH  12  13
BRANCH  12  16
ATOM     16  C   TRP A   1     -11.635  -1.698  45.657  0.00  0.00    +0.322 C 
ATOM     17  O   TRP A   1     -11.655  -2.944  45.471  0.00  0.00    -0.249 OA
BRANCH  16  18
ATOM     18  OXT TRP A   1     -11.616  -0.834  44.566  0.00  0.00    -0.479 OA
ATOM     19  HXT TRP A   1     -11.718  -1.188  43.622  0.00  0.00    +0.295 HD
ENDBRANCH  16  18
ENDBRANCH  12  16
ENDBRANCH  11  12
ENDBRANCH   1  11
TORSDOF 5
ENDMDL
MODEL 3
REMARK VINA RESULT:      -5.6     45.151     46.775
REMARK  Name = peptide_8_EIFVGTWEDR
REMARK  5 active torsions:
REMARK  status: ('A' for Active; 'I' for Inactive)
REMARK    1  A    between atoms: N_1  and  CA_2
REMARK    2  A    between atoms: CA_2  and  CB_3
REMARK    3  A    between atoms: CA_2  and  C_13
REMARK    4  A    between atoms: CB_3  and  CG_4
REMARK    5  A    between atoms: C_13  and  OXT_15
REMARK                            x       y       z     vdW  Elec       q    Type
REMARK                         _______ _______ _______ _____ _____    ______ ____
ROOT
ATOM      1  CG  TRP A   1      -6.623   0.150  48.716  0.00  0.00    -0.020 A 
ATOM      2  CD1 TRP A   1      -6.460   1.518  48.523  0.00  0.00    +0.087 A 
ATOM      3  NE1 TRP A   1      -7.604   2.069  48.057  0.00  0.00    -0.360 N 
ATOM      4  CE2 TRP A   1      -8.483   1.058  47.942  0.00  0.00    +0.047 A 
ATOM      5  CZ2 TRP A   1      -9.797   1.128  47.482  0.00  0.00    +0.026 A 
ATOM      6  CH2 TRP A   1     -10.539  -0.066  47.425  0.00  0.00    +0.002 A 
ATOM      7  CZ3 TRP A   1      -9.957  -1.289  47.822  0.00  0.00    +0.001 A 
ATOM      8  CE3 TRP A   1      -8.628  -1.331  48.281  0.00  0.00    +0.010 A 
ATOM      9  CD2 TRP A   1      -7.920  -0.130  48.331  0.00  0.00    +0.003 A 
ATOM     10  HE1 TRP A   1      -7.763   3.073  47.820  0.00  0.00    +0.165 HD
ENDROOT
BRANCH   1  11
ATOM     11  CB  TRP A   1      -5.567  -0.826  49.153  0.00  0.00    +0.067 C 
BRANCH  11  12
ATOM     12  CA  TRP A   1      -4.588  -1.153  48.007  0.00  0.00    +0.165 C 
BRANCH  12  13
ATOM     13  N   TRP A   1      -5.267  -1.871  46.926  0.00  0.00    -0.318 NA
ATOM     14  H1  TRP A   1      -6.226  -1.469  46.811  0.00  0.00    +0.119 HD
ATOM     15  H2  TRP A   1      -5.384  -2.876  47.192  0.00  0.00    +0.119 HD
ENDBRANCH  12  13
BRANCH  12  16
ATOM     16  C   TRP A   1      -3.424  -1.967  48.501  0.00  0.00    +0.322 C 
ATOM     17  O   TRP A   1      -2.252  -1.697  48.126  0.00  0.00    -0.249 OA
BRANCH  16  18
ATOM     18  OXT TRP A   1      -3.647  -3.045  49.353  0.00  0.00    -0.479 OA
ATOM     19  HXT TRP A   1      -3.713  -2.910  50.355  0.00  0.00    +0.295 HD
ENDBRANCH  16  18
ENDBRANCH  12  16
ENDBRANCH  11  12
ENDBRANCH   1  11
TORSDOF 5
ENDMDL
MODEL 4
REMARK VINA RESULT:      -5.3     45.622     47.528
REMARK  Name = peptide_8_EIFVGTWEDR
REMARK  5 active torsions:
REMARK  status: ('A' for Active; 'I' for Inactive)
REMARK    1  A    between atoms: N_1  and  CA_2
REMARK    2  A    between atoms: CA_2  and  CB_3
REMARK    3  A    between atoms: CA_2  and  C_13
REMARK    4  A    between atoms: CB_3  and  CG_4
REMARK    5  A    between atoms: C_13  and  OXT_15
REMARK                            x       y       z     vdW  Elec       q    Type
REMARK                         _______ _______ _______ _____ _____    ______ ____
ROOT
ATOM      1  CG  TRP A   1      -8.317  -2.105  48.086  0.00  0.00    -0.020 A 
ATOM      2  CD1 TRP A   1      -8.629  -3.393  47.662  0.00  0.00    +0.087 A 
ATOM      3  NE1 TRP A   1      -9.929  -3.466  47.294  0.00  0.00    -0.360 N 
ATOM      4  CE2 TRP A   1     -10.441  -2.239  47.495  0.00  0.00    +0.047 A 
ATOM      5  CZ2 TRP A   1     -11.755  -1.825  47.278  0.00  0.00    +0.026 A 
ATOM      6  CH2 TRP A   1     -12.082  -0.490  47.576  0.00  0.00    +0.002 A 
ATOM      7  CZ3 TRP A   1     -11.101   0.391  48.081  0.00  0.00    +0.001 A 
ATOM      8  CE3 TRP A   1      -9.784  -0.054  48.292  0.00  0.00    +0.010 A 
ATOM      9  CD2 TRP A   1      -9.489  -1.382  47.982  0.00  0.00    +0.003 A 
ATOM     10  HE1 TRP A   1     -10.433  -4.310  46.942  0.00  0.00    +0.165 HD
ENDROOT
BRANCH   1  11
ATOM     11  CB  TRP A   1      -6.999  -1.639  48.640  0.00  0.00    +0.067 C 
BRANCH  11  12
ATOM     12  CA  TRP A   1      -6.230  -0.775  47.620  0.00  0.00    +0.165 C 
BRANCH  12  13
ATOM     13  N   TRP A   1      -4.943  -1.386  47.281  0.00  0.00    -0.318 NA
ATOM     14  H1  TRP A   1      -4.178  -0.733  47.570  0.00  0.00    +0.119 HD
ATOM     15  H2  TRP A   1      -4.874  -1.503  46.243  0.00  0.00    +0.119 HD
ENDBRANCH  12  13
BRANCH  12  16
ATOM     16  C   TRP A   1      -6.006   0.616  48.145  0.00  0.00    +0.322 C 
ATOM     17  O   TRP A   1      -6.552   0.989  49.218  0.00  0.00    -0.249 OA
BRANCH  16  18
ATOM     18  OXT TRP A   1      -5.215   1.507  47.425  0.00  0.00    -0.479 OA
ATOM     19  HXT TRP A   1      -4.782   2.302  47.880  0.00  0.00    +0.295 HD
ENDBRANCH  16  18
ENDBRANCH  12  16
ENDBRANCH  11  12
ENDBRANCH   1  11
TORSDOF 5
ENDMDL
MODEL 5
REMARK VINA RESULT:      -5.3     18.029     19.083
REMARK  Name = peptide_8_EIFVGTWEDR
REMARK  5 active torsions:
REMARK  status: ('A' for Active; 'I' for Inactive)
REMARK    1  A    between atoms: N_1  and  CA_2
REMARK    2  A    between atoms: CA_2  and  CB_3
REMARK    3  A    between atoms: CA_2  and  C_13
REMARK    4  A    between atoms: CB_3  and  CG_4
REMARK    5  A    between atoms: C_13  and  OXT_15
REMARK                            x       y       z     vdW  Elec       q    Type
REMARK                         _______ _______ _______ _____ _____    ______ ____
ROOT
ATOM      1  CG  TRP A   1       8.555   8.062  25.213  0.00  0.00    -0.020 A 
ATOM      2  CD1 TRP A   1       9.897   8.199  24.872  0.00  0.00    +0.087 A 
ATOM      3  NE1 TRP A   1      10.597   7.109  25.265  0.00  0.00    -0.360 N 
ATOM      4  CE2 TRP A   1       9.709   6.294  25.862  0.00  0.00    +0.047 A 
ATOM      5  CZ2 TRP A   1       9.962   5.054  26.447  0.00  0.00    +0.026 A 
ATOM      6  CH2 TRP A   1       8.882   4.372  27.037  0.00  0.00    +0.002 A 
ATOM      7  CZ3 TRP A   1       7.588   4.941  27.031  0.00  0.00    +0.001 A 
ATOM      8  CE3 TRP A   1       7.363   6.194  26.435  0.00  0.00    +0.010 A 
ATOM      9  CD2 TRP A   1       8.453   6.843  25.854  0.00  0.00    +0.003 A 
ATOM     10  HE1 TRP A   1      11.620   6.947  25.143  0.00  0.00    +0.165 HD
ENDROOT
BRANCH   1  11
ATOM     11  CB  TRP A   1       7.471   9.085  25.013  0.00  0.00    +0.067 C 
BRANCH  11  12
ATOM     12  CA  TRP A   1       7.079   9.212  23.528  0.00  0.00    +0.165 C 
BRANCH  12  13
ATOM     13  N   TRP A   1       7.041  10.616  23.114  0.00  0.00    -0.318 NA
ATOM     14  H1  TRP A   1       7.641  11.172  23.767  0.00  0.00    +0.119 HD
ATOM     15  H2  TRP A   1       6.065  10.982  23.205  0.00  0.00    +0.119 HD
ENDBRANCH  12  13
BRANCH  12  16
ATOM     16  C   TRP A   1       5.746   8.570  23.259  0.00  0.00    +0.322 C 
ATOM     17  O   TRP A   1       4.762   9.270  22.896  0.00  0.00    -0.249 OA
BRANCH  16  18
ATOM     18  OXT TRP A   1       5.590   7.199  23.442  0.00  0.00    -0.479 OA
ATOM     19  HXT TRP A   1       6.375   6.619  23.715  0.00  0.00    +0.295 HD
ENDBRANCH  16  18
ENDBRANCH  12  16
ENDBRANCH  11  12
ENDBRANCH   1  11
TORSDOF 5
ENDMDL
MODEL 6
REMARK VINA RESULT:      -5.2     18.546     20.041
REMARK  Name = peptide_8_EIFVGTWEDR
REMARK  5 active torsions:
REMARK  status: ('A' for Active; 'I' for Inactive)
REMARK    1  A    between atoms: N_1  and  CA_2
REMARK    2  A    between atoms: CA_2  and  CB_3
REMARK    3  A    between atoms: CA_2  and  C_13
REMARK    4  A    between atoms: CB_3  and  CG_4
REMARK    5  A    between atoms: C_13  and  OXT_15
REMARK                            x       y       z     vdW  Elec       q    Type
REMARK                         _______ _______ _______ _____ _____    ______ ____
ROOT
ATOM      1  CG  TRP A   1       8.344   7.968  25.218  0.00  0.00    -0.020 A 
ATOM      2  CD1 TRP A   1       9.681   8.244  24.950  0.00  0.00    +0.087 A 
ATOM      3  NE1 TRP A   1      10.471   7.249  25.418  0.00  0.00    -0.360 N 
ATOM      4  CE2 TRP A   1       9.643   6.356  25.988  0.00  0.00    +0.047 A 
ATOM      5  CZ2 TRP A   1       9.993   5.167  26.626  0.00  0.00    +0.026 A 
ATOM      6  CH2 TRP A   1       8.960   4.385  27.175  0.00  0.00    +0.002 A 
ATOM      7  CZ3 TRP A   1       7.615   4.806  27.076  0.00  0.00    +0.001 A 
ATOM      8  CE3 TRP A   1       7.292   6.012  26.428  0.00  0.00    +0.010 A 
ATOM      9  CD2 TRP A   1       8.337   6.762  25.890  0.00  0.00    +0.003 A 
ATOM     10  HE1 TRP A   1      11.511   7.198  25.360  0.00  0.00    +0.165 HD
ENDROOT
BRANCH   1  11
ATOM     11  CB  TRP A   1       7.169   8.859  24.923  0.00  0.00    +0.067 C 
BRANCH  11  12
ATOM     12  CA  TRP A   1       6.799   9.730  26.140  0.00  0.00    +0.165 C 
BRANCH  12  13
ATOM     13  N   TRP A   1       7.925   9.837  27.071  0.00  0.00    -0.318 NA
ATOM     14  H1  TRP A   1       7.999   8.942  27.608  0.00  0.00    +0.119 HD
ATOM     15  H2  TRP A   1       7.736  10.598  27.763  0.00  0.00    +0.119 HD
ENDBRANCH  12  13
BRANCH  12  16
ATOM     16  C   TRP A   1       5.599   9.178  26.860  0.00  0.00    +0.322 C 
ATOM     17  O   TRP A   1       4.713   8.542  26.229  0.00  0.00    -0.249 OA
BRANCH  16  18
ATOM     18  OXT TRP A   1       5.452   9.399  28.227  0.00  0.00    -0.479 OA
ATOM     19  HXT TRP A   1       6.218   9.226  28.866  0.00  0.00    +0.295 HD
ENDBRANCH  16  18
ENDBRANCH  12  16
ENDBRANCH  11  12
ENDBRANCH   1  11
TORSDOF 5
ENDMDL
MODEL 7
REMARK VINA RESULT:      -5.2      3.103      5.461
REMARK  Name = peptide_8_EIFVGTWEDR
REMARK  5 active torsions:
REMARK  status: ('A' for Active; 'I' for Inactive)
REMARK    1  A    between atoms: N_1  and  CA_2
REMARK    2  A    between atoms: CA_2  and  CB_3
REMARK    3  A    between atoms: CA_2  and  C_13
REMARK    4  A    between atoms: CB_3  and  CG_4
REMARK    5  A    between atoms: C_13  and  OXT_15
REMARK                            x       y       z     vdW  Elec       q    Type
REMARK                         _______ _______ _______ _____ _____    ______ ____
ROOT
ATOM      1  CG  TRP A   1      19.761   7.515   9.423  0.00  0.00    -0.020 A 
ATOM      2  CD1 TRP A   1      19.494   8.777   9.946  0.00  0.00    +0.087 A 
ATOM      3  NE1 TRP A   1      18.201   8.864  10.334  0.00  0.00    -0.360 N 
ATOM      4  CE2 TRP A   1      17.648   7.672  10.050  0.00  0.00    +0.047 A 
ATOM      5  CZ2 TRP A   1      16.324   7.285  10.253  0.00  0.00    +0.026 A 
ATOM      6  CH2 TRP A   1      15.950   5.986   9.861  0.00  0.00    +0.002 A 
ATOM      7  CZ3 TRP A   1      16.897   5.115   9.279  0.00  0.00    +0.001 A 
ATOM      8  CE3 TRP A   1      18.226   5.533   9.085  0.00  0.00    +0.010 A 
ATOM      9  CD2 TRP A   1      18.567   6.824   9.488  0.00  0.00    +0.003 A 
ATOM     10  HE1 TRP A   1      17.729   9.695  10.754  0.00  0.00    +0.165 HD
ENDROOT
BRANCH   1  11
ATOM     11  CB  TRP A   1      21.056   7.051   8.820  0.00  0.00    +0.067 C 
BRANCH  11  12
ATOM     12  CA  TRP A   1      21.802   6.079   9.756  0.00  0.00    +0.165 C 
BRANCH  12  13
ATOM     13  N   TRP A   1      23.130   6.593  10.096  0.00  0.00    -0.318 NA
ATOM     14  H1  TRP A   1      23.131   6.873  11.104  0.00  0.00    +0.119 HD
ATOM     15  H2  TRP A   1      23.325   7.456   9.536  0.00  0.00    +0.119 HD
ENDBRANCH  12  13
BRANCH  12  16
ATOM     16  C   TRP A   1      21.932   4.716   9.135  0.00  0.00    +0.322 C 
ATOM     17  O   TRP A   1      21.279   4.422   8.098  0.00  0.00    -0.249 OA
BRANCH  16  18
ATOM     18  OXT TRP A   1      22.754   3.762   9.728  0.00  0.00    -0.479 OA
ATOM     19  HXT TRP A   1      23.285   3.110   9.162  0.00  0.00    +0.295 HD
ENDBRANCH  16  18
ENDBRANCH  12  16
ENDBRANCH  11  12
ENDBRANCH   1  11
TORSDOF 5
ENDMDL
MODEL 8
REMARK VINA RESULT:      -5.0     21.581     23.040
REMARK  Name = peptide_8_EIFVGTWEDR
REMARK  5 active torsions:
REMARK  status: ('A' for Active; 'I' for Inactive)
REMARK    1  A    between atoms: N_1  and  CA_2
REMARK    2  A    between atoms: CA_2  and  CB_3
REMARK    3  A    between atoms: CA_2  and  C_13
REMARK    4  A    between atoms: CB_3  and  CG_4
REMARK    5  A    between atoms: C_13  and  OXT_15
REMARK                            x       y       z     vdW  Elec       q    Type
REMARK                         _______ _______ _______ _____ _____    ______ ____
ROOT
ATOM      1  CG  TRP A   1       4.564  -1.997  24.708  0.00  0.00    -0.020 A 
ATOM      2  CD1 TRP A   1       5.631  -1.110  24.602  0.00  0.00    +0.087 A 
ATOM      3  NE1 TRP A   1       5.197   0.103  24.188  0.00  0.00    -0.360 N 
ATOM      4  CE2 TRP A   1       3.868  -0.016  24.019  0.00  0.00    +0.047 A 
ATOM      5  CZ2 TRP A   1       2.980   0.966  23.582  0.00  0.00    +0.026 A 
ATOM      6  CH2 TRP A   1       1.623   0.618  23.458  0.00  0.00    +0.002 A 
ATOM      7  CZ3 TRP A   1       1.189  -0.690  23.766  0.00  0.00    +0.001 A 
ATOM      8  CE3 TRP A   1       2.107  -1.662  24.203  0.00  0.00    +0.010 A 
ATOM      9  CD2 TRP A   1       3.445  -1.285  24.322  0.00  0.00    +0.003 A 
ATOM     10  HE1 TRP A   1       5.781   0.952  24.019  0.00  0.00    +0.165 HD
ENDROOT
BRANCH   1  11
ATOM     11  CB  TRP A   1       4.643  -3.454  25.066  0.00  0.00    +0.067 C 
BRANCH  11  12
ATOM     12  CA  TRP A   1       5.625  -3.700  26.229  0.00  0.00    +0.165 C 
BRANCH  12  13
ATOM     13  N   TRP A   1       6.481  -4.856  25.957  0.00  0.00    -0.318 NA
ATOM     14  H1  TRP A   1       7.427  -4.510  25.673  0.00  0.00    +0.119 HD
ATOM     15  H2  TRP A   1       6.094  -5.396  25.148  0.00  0.00    +0.119 HD
ENDBRANCH  12  13
BRANCH  12  16
ATOM     16  C   TRP A   1       4.892  -3.908  27.526  0.00  0.00    +0.322 C 
ATOM     17  O   TRP A   1       5.436  -4.539  28.472  0.00  0.00    -0.249 OA
BRANCH  16  18
ATOM     18  OXT TRP A   1       3.594  -3.428  27.670  0.00  0.00    -0.479 OA
ATOM     19  HXT TRP A   1       3.234  -3.170  28.582  0.00  0.00    +0.295 HD
ENDBRANCH  16  18
ENDBRANCH  12  16
ENDBRANCH  11  12
ENDBRANCH   1  11
TORSDOF 5
ENDMDL
MODEL 9
REMARK VINA RESULT:      -4.9     21.643     23.285
REMARK  Name = peptide_8_EIFVGTWEDR
REMARK  5 active torsions:
REMARK  status: ('A' for Active; 'I' for Inactive)
REMARK    1  A    between atoms: N_1  and  CA_2
REMARK    2  A    between atoms: CA_2  and  CB_3
REMARK    3  A    between atoms: CA_2  and  C_13
REMARK    4  A    between atoms: CB_3  and  CG_4
REMARK    5  A    between atoms: C_13  and  OXT_15
REMARK                            x       y       z     vdW  Elec       q    Type
REMARK                         _______ _______ _______ _____ _____    ______ ____
ROOT
ATOM      1  CG  TRP A   1       1.527  -1.193  24.389  0.00  0.00    -0.020 A 
ATOM      2  CD1 TRP A   1       1.139  -2.511  24.615  0.00  0.00    +0.087 A 
ATOM      3  NE1 TRP A   1       2.225  -3.302  24.774  0.00  0.00    -0.360 N 
ATOM      4  CE2 TRP A   1       3.293  -2.497  24.638  0.00  0.00    +0.047 A 
ATOM      5  CZ2 TRP A   1       4.638  -2.860  24.701  0.00  0.00    +0.026 A 
ATOM      6  CH2 TRP A   1       5.601  -1.852  24.510  0.00  0.00    +0.002 A 
ATOM      7  CZ3 TRP A   1       5.203  -0.521  24.259  0.00  0.00    +0.001 A 
ATOM      8  CE3 TRP A   1       3.839  -0.184  24.198  0.00  0.00    +0.010 A 
ATOM      9  CD2 TRP A   1       2.908  -1.203  24.398  0.00  0.00    +0.003 A 
ATOM     10  HE1 TRP A   1       2.228  -4.331  24.950  0.00  0.00    +0.165 HD
ENDROOT
BRANCH   1  11
ATOM     11  CB  TRP A   1       0.622  -0.031  24.094  0.00  0.00    +0.067 C 
BRANCH  11  12
ATOM     12  CA  TRP A   1       0.638   1.005  25.236  0.00  0.00    +0.165 C 
BRANCH  12  13
ATOM     13  N   TRP A   1       0.181   0.408  26.493  0.00  0.00    -0.318 NA
ATOM     14  H1  TRP A   1      -0.841   0.605  26.602  0.00  0.00    +0.119 HD
ATOM     15  H2  TRP A   1       0.672   0.864  27.297  0.00  0.00    +0.119 HD
ENDBRANCH  12  13
BRANCH  12  16
ATOM     16  C   TRP A   1      -0.216   2.197  24.903  0.00  0.00    +0.322 C 
ATOM     17  O   TRP A   1      -1.373   2.310  25.391  0.00  0.00    -0.249 OA
BRANCH  16  18
ATOM     18  OXT TRP A   1       0.263   3.166  24.026  0.00  0.00    -0.479 OA
ATOM     19  HXT TRP A   1       1.069   3.732  24.267  0.00  0.00    +0.295 HD
ENDBRANCH  16  18
ENDBRANCH  12  16
ENDBRANCH  11  12
ENDBRANCH   1  11
TORSDOF 5
ENDMDL
