MODEL 1
REMARK VINA RESULT:      -4.0      0.000      0.000
REMARK  Name = peptide_9_VGAGRGRCNS
REMARK  6 active torsions:
REMARK  status: ('A' for Active; 'I' for Inactive)
REMARK    1  A    between atoms: N_1  and  CA_2
REMARK    2  A    between atoms: CA_2  and  CB_3
REMARK    3  A    between atoms: CA_2  and  C_6
REMARK    4  A    between atoms: CB_3  and  CG1_4
REMARK    5  A    between atoms: CB_3  and  CG2_5
REMARK    6  A    between atoms: C_6  and  OXT_8
REMARK                            x       y       z     vdW  Elec       q    Type
REMARK                         _______ _______ _______ _____ _____    ______ ____
ROOT
ATOM      1  CA  VAL A   1      -7.365   0.963  48.586  0.00  0.00    +0.163 C 
ENDROOT
BRANCH   1   2
ATOM      2  N   VAL A   1      -7.012   2.322  48.165  0.00  0.00    -0.318 NA
ATOM      3  H1  VAL A   1      -7.309   3.005  48.901  0.00  0.00    +0.119 HD
ATOM      4  H2  VAL A   1      -7.537   2.552  47.290  0.00  0.00    +0.119 HD
ENDBRANCH   1   2
BRANCH   1   5
ATOM      5  CB  VAL A   1      -8.495   0.389  47.691  0.00  0.00    +0.011 C 
ATOM      6  CG1 VAL A   1      -8.804  -1.076  48.044  0.00  0.00    +0.009 C 
ATOM      7  CG2 VAL A   1      -9.779   1.225  47.817  0.00  0.00    +0.009 C 
ENDBRANCH   1   5
BRANCH   1   8
ATOM      8  C   VAL A   1      -6.137   0.086  48.561  0.00  0.00    +0.322 C 
ATOM      9  O   VAL A   1      -5.649  -0.346  49.640  0.00  0.00    -0.249 OA
BRANCH   8  10
ATOM     10  OXT VAL A   1      -5.536  -0.240  47.349  0.00  0.00    -0.479 OA
ATOM     11  HXT VAL A   1      -6.042  -0.763  46.643  0.00  0.00    +0.295 HD
ENDBRANCH   8  10
ENDBRANCH   1   8
TORSDOF 4
ENDMDL
MODEL 2
REMARK VINA RESULT:      -4.0     47.767     48.476
REMARK  Name = peptide_9_VGAGRGRCNS
REMARK  6 active torsions:
REMARK  status: ('A' for Active; 'I' for Inactive)
REMARK    1  A    between atoms: N_1  and  CA_2
REMARK    2  A    between atoms: CA_2  and  CB_3
REMARK    3  A    between atoms: CA_2  and  C_6
REMARK    4  A    between atoms: CB_3  and  CG1_4
REMARK    5  A    between atoms: CB_3  and  CG2_5
REMARK    6  A    between atoms: C_6  and  OXT_8
REMARK                            x       y       z     vdW  Elec       q    Type
REMARK                         _______ _______ _______ _____ _____    ______ ____
ROOT
ATOM      1  CA  VAL A   1      20.704   4.408   8.644  0.00  0.00    +0.163 C 
ENDROOT
BRANCH   1   2
ATOM      2  N   VAL A   1      21.068   3.032   8.995  0.00  0.00    -0.318 NA
ATOM      3  H1  VAL A   1      20.217   2.518   9.322  0.00  0.00    +0.119 HD
ATOM      4  H2  VAL A   1      21.748   3.054   9.789  0.00  0.00    +0.119 HD
ENDBRANCH   1   2
BRANCH   1   5
ATOM      5  CB  VAL A   1      19.522   4.902   9.520  0.00  0.00    +0.011 C 
ATOM      6  CG1 VAL A   1      19.245   6.399   9.302  0.00  0.00    +0.009 C 
ATOM      7  CG2 VAL A   1      18.244   4.100   9.227  0.00  0.00    +0.009 C 
ENDBRANCH   1   5
BRANCH   1   8
ATOM      8  C   VAL A   1      21.910   5.306   8.782  0.00  0.00    +0.322 C 
ATOM      9  O   VAL A   1      22.491   5.414   9.894  0.00  0.00    -0.249 OA
BRANCH   8  10
ATOM     10  OXT VAL A   1      22.377   6.021   7.683  0.00  0.00    -0.479 OA
ATOM     11  HXT VAL A   1      22.934   5.569   6.968  0.00  0.00    +0.295 HD
ENDBRANCH   8  10
ENDBRANCH   1   8
TORSDOF 4
ENDMDL
MODEL 3
REMARK VINA RESULT:      -3.9     46.690     47.466
REMARK  Name = peptide_9_VGAGRGRCNS
REMARK  6 active torsions:
REMARK  status: ('A' for Active; 'I' for Inactive)
REMARK    1  A    between atoms: N_1  and  CA_2
REMARK    2  A    between atoms: CA_2  and  CB_3
REMARK    3  A    between atoms: CA_2  and  C_6
REMARK    4  A    between atoms: CB_3  and  CG1_4
REMARK    5  A    between atoms: CB_3  and  CG2_5
REMARK    6  A    between atoms: C_6  and  OXT_8
REMARK                            x       y       z     vdW  Elec       q    Type
REMARK                         _______ _______ _______ _____ _____    ______ ____
ROOT
ATOM      1  CA  VAL A   1      19.207   4.372   9.663  0.00  0.00    +0.163 C 
ENDROOT
BRANCH   1   2
ATOM      2  N   VAL A   1      18.754   3.072   9.159  0.00  0.00    -0.318 NA
ATOM      3  H1  VAL A   1      19.455   2.697   8.478  0.00  0.00    +0.119 HD
ATOM      4  H2  VAL A   1      17.852   3.204   8.644  0.00  0.00    +0.119 HD
ENDBRANCH   1   2
BRANCH   1   5
ATOM      5  CB  VAL A   1      20.436   4.872   8.858  0.00  0.00    +0.011 C 
ATOM      6  CG1 VAL A   1      20.788   6.327   9.214  0.00  0.00    +0.009 C 
ATOM      7  CG2 VAL A   1      21.661   3.977   9.105  0.00  0.00    +0.009 C 
ENDBRANCH   1   5
BRANCH   1   8
ATOM      8  C   VAL A   1      18.070   5.363   9.613  0.00  0.00    +0.322 C 
ATOM      9  O   VAL A   1      17.494   5.608   8.520  0.00  0.00    -0.249 OA
BRANCH   8  10
ATOM     10  OXT VAL A   1      17.660   6.015  10.773  0.00  0.00    -0.479 OA
ATOM     11  HXT VAL A   1      16.805   5.745  11.245  0.00  0.00    +0.295 HD
ENDBRANCH   8  10
ENDBRANCH   1   8
TORSDOF 4
ENDMDL
MODEL 4
REMARK VINA RESULT:      -3.9      2.696      3.281
REMARK  Name = peptide_9_VGAGRGRCNS
REMARK  6 active torsions:
REMARK  status: ('A' for Active; 'I' for Inactive)
REMARK    1  A    between atoms: N_1  and  CA_2
REMARK    2  A    between atoms: CA_2  and  CB_3
REMARK    3  A    between atoms: CA_2  and  C_6
REMARK    4  A    between atoms: CB_3  and  CG1_4
REMARK    5  A    between atoms: CB_3  and  CG2_5
REMARK    6  A    between atoms: C_6  and  OXT_8
REMARK                            x       y       z     vdW  Elec       q    Type
REMARK                         _______ _______ _______ _____ _____    ______ ____
ROOT
ATOM      1  CA  VAL A   1      -8.701   0.797  47.539  0.00  0.00    +0.163 C 
ENDROOT
BRANCH   1   2
ATOM      2  N   VAL A   1      -9.119   2.161  47.872  0.00  0.00    -0.318 NA
ATOM      3  H1  VAL A   1     -10.034   2.133  48.380  0.00  0.00    +0.119 HD
ATOM      4  H2  VAL A   1      -9.266   2.697  46.986  0.00  0.00    +0.119 HD
ENDBRANCH   1   2
BRANCH   1   5
ATOM      5  CB  VAL A   1      -7.478   0.375  48.395  0.00  0.00    +0.011 C 
ATOM      6  CG1 VAL A   1      -7.065  -1.080  48.111  0.00  0.00    +0.009 C 
ATOM      7  CG2 VAL A   1      -6.278   1.302  48.142  0.00  0.00    +0.009 C 
ENDBRANCH   1   5
BRANCH   1   8
ATOM      8  C   VAL A   1      -9.861  -0.151  47.723  0.00  0.00    +0.322 C 
ATOM      9  O   VAL A   1     -10.416  -0.258  48.849  0.00  0.00    -0.249 OA
BRANCH   8  10
ATOM     10  OXT VAL A   1     -10.315  -0.915  46.651  0.00  0.00    -0.479 OA
ATOM     11  HXT VAL A   1     -11.307  -1.045  46.489  0.00  0.00    +0.295 HD
ENDBRANCH   8  10
ENDBRANCH   1   8
TORSDOF 4
ENDMDL
MODEL 5
REMARK VINA RESULT:      -3.9     45.367     46.033
REMARK  Name = peptide_9_VGAGRGRCNS
REMARK  6 active torsions:
REMARK  status: ('A' for Active; 'I' for Inactive)
REMARK    1  A    between atoms: N_1  and  CA_2
REMARK    2  A    between atoms: CA_2  and  CB_3
REMARK    3  A    between atoms: CA_2  and  C_6
REMARK    4  A    between atoms: CB_3  and  CG1_4
REMARK    5  A    between atoms: CB_3  and  CG2_5
REMARK    6  A    between atoms: C_6  and  OXT_8
REMARK                            x       y       z     vdW  Elec       q    Type
REMARK                         _______ _______ _______ _____ _____    ______ ____
ROOT
ATOM      1  CA  VAL A   1      17.545   5.968   9.473  0.00  0.00    +0.163 C 
ENDROOT
BRANCH   1   2
ATOM      2  N   VAL A   1      17.372   6.569   8.148  0.00  0.00    -0.318 NA
ATOM      3  H1  VAL A   1      16.759   7.415   8.224  0.00  0.00    +0.119 HD
ATOM      4  H2  VAL A   1      16.886   5.883   7.525  0.00  0.00    +0.119 HD
ENDBRANCH   1   2
BRANCH   1   5
ATOM      5  CB  VAL A   1      16.253   6.126  10.319  0.00  0.00    +0.011 C 
ATOM      6  CG1 VAL A   1      16.568   6.621  11.740  0.00  0.00    +0.009 C 
ATOM      7  CG2 VAL A   1      15.268   7.098   9.648  0.00  0.00    +0.009 C 
ENDBRANCH   1   5
BRANCH   1   8
ATOM      8  C   VAL A   1      17.939   4.519   9.328  0.00  0.00    +0.322 C 
ATOM      9  O   VAL A   1      17.315   3.772   8.528  0.00  0.00    -0.249 OA
BRANCH   8  10
ATOM     10  OXT VAL A   1      18.988   4.001  10.084  0.00  0.00    -0.479 OA
ATOM     11  HXT VAL A   1      19.092   3.002  10.212  0.00  0.00    +0.295 HD
ENDBRANCH   8  10
ENDBRANCH   1   8
TORSDOF 4
ENDMDL
MODEL 6
REMARK VINA RESULT:      -3.8     26.801     27.519
REMARK  Name = peptide_9_VGAGRGRCNS
REMARK  6 active torsions:
REMARK  status: ('A' for Active; 'I' for Inactive)
REMARK    1  A    between atoms: N_1  and  CA_2
REMARK    2  A    between atoms: CA_2  and  CB_3
REMARK    3  A    between atoms: CA_2  and  C_6
REMARK    4  A    between atoms: CB_3  and  CG1_4
REMARK    5  A    between atoms: CB_3  and  CG2_5
REMARK    6  A    between atoms: C_6  and  OXT_8
REMARK                            x       y       z     vdW  Elec       q    Type
REMARK                         _______ _______ _______ _____ _____    ______ ____
ROOT
ATOM      1  CA  VAL A   1       8.022   5.747  26.336  0.00  0.00    +0.163 C 
ENDROOT
BRANCH   1   2
ATOM      2  N   VAL A   1       6.763   6.251  26.891  0.00  0.00    -0.318 NA
ATOM      3  H1  VAL A   1       6.202   6.704  26.132  0.00  0.00    +0.119 HD
ATOM      4  H2  VAL A   1       6.977   6.985  27.606  0.00  0.00    +0.119 HD
ENDBRANCH   1   2
BRANCH   1   5
ATOM      5  CB  VAL A   1       9.025   6.910  26.112  0.00  0.00    +0.011 C 
ATOM      6  CG1 VAL A   1      10.020   6.586  24.984  0.00  0.00    +0.009 C 
ATOM      7  CG2 VAL A   1       8.290   8.219  25.781  0.00  0.00    +0.009 C 
ENDBRANCH   1   5
BRANCH   1   8
ATOM      8  C   VAL A   1       8.594   4.689  27.248  0.00  0.00    +0.322 C 
ATOM      9  O   VAL A   1       8.431   4.775  28.494  0.00  0.00    -0.249 OA
BRANCH   8  10
ATOM     10  OXT VAL A   1       9.310   3.621  26.714  0.00  0.00    -0.479 OA
ATOM     11  HXT VAL A   1       9.864   3.735  25.874  0.00  0.00    +0.295 HD
ENDBRANCH   8  10
ENDBRANCH   1   8
TORSDOF 4
ENDMDL
MODEL 7
REMARK VINA RESULT:      -3.8      3.486      3.960
REMARK  Name = peptide_9_VGAGRGRCNS
REMARK  6 active torsions:
REMARK  status: ('A' for Active; 'I' for Inactive)
REMARK    1  A    between atoms: N_1  and  CA_2
REMARK    2  A    between atoms: CA_2  and  CB_3
REMARK    3  A    between atoms: CA_2  and  C_6
REMARK    4  A    between atoms: CB_3  and  CG1_4
REMARK    5  A    between atoms: CB_3  and  CG2_5
REMARK    6  A    between atoms: C_6  and  OXT_8
REMARK                            x       y       z     vdW  Elec       q    Type
REMARK                         _______ _______ _______ _____ _____    ______ ____
ROOT
ATOM      1  CA  VAL A   1      -9.905  -0.730  48.173  0.00  0.00    +0.163 C 
ENDROOT
BRANCH   1   2
ATOM      2  N   VAL A   1     -10.880  -1.161  49.179  0.00  0.00    -0.318 NA
ATOM      3  H1  VAL A   1     -11.231  -0.328  49.706  0.00  0.00    +0.119 HD
ATOM      4  H2  VAL A   1     -10.402  -1.790  49.865  0.00  0.00    +0.119 HD
ENDBRANCH   1   2
BRANCH   1   5
ATOM      5  CB  VAL A   1     -10.105  -1.512  46.847  0.00  0.00    +0.011 C 
ATOM      6  CG1 VAL A   1      -9.949  -3.027  47.058  0.00  0.00    +0.009 C 
ATOM      7  CG2 VAL A   1     -11.486  -1.223  46.237  0.00  0.00    +0.009 C 
ENDBRANCH   1   5
BRANCH   1   8
ATOM      8  C   VAL A   1     -10.017   0.760  47.960  0.00  0.00    +0.322 C 
ATOM      9  O   VAL A   1     -10.876   1.425  48.598  0.00  0.00    -0.249 OA
BRANCH   8  10
ATOM     10  OXT VAL A   1      -9.177   1.401  47.054  0.00  0.00    -0.479 OA
ATOM     11  HXT VAL A   1      -8.593   2.177  47.346  0.00  0.00    +0.295 HD
ENDBRANCH   8  10
ENDBRANCH   1   8
TORSDOF 4
ENDMDL
MODEL 8
REMARK VINA RESULT:      -3.7     17.916     19.221
REMARK  Name = peptide_9_VGAGRGRCNS
REMARK  6 active torsions:
REMARK  status: ('A' for Active; 'I' for Inactive)
REMARK    1  A    between atoms: N_1  and  CA_2
REMARK    2  A    between atoms: CA_2  and  CB_3
REMARK    3  A    between atoms: CA_2  and  C_6
REMARK    4  A    between atoms: CB_3  and  CG1_4
REMARK    5  A    between atoms: CB_3  and  CG2_5
REMARK    6  A    between atoms: C_6  and  OXT_8
REMARK                            x       y       z     vdW  Elec       q    Type
REMARK                         _______ _______ _______ _____ _____    ______ ____
ROOT
ATOM      1  CA  VAL A   1       9.745  -5.227  42.750  0.00  0.00    +0.163 C 
ENDROOT
BRANCH   1   2
ATOM      2  N   VAL A   1       9.406  -3.835  42.438  0.00  0.00    -0.318 NA
ATOM      3  H1  VAL A   1       9.798  -3.206  43.178  0.00  0.00    +0.119 HD
ATOM      4  H2  VAL A   1       8.365  -3.729  42.452  0.00  0.00    +0.119 HD
ENDBRANCH   1   2
BRANCH   1   5
ATOM      5  CB  VAL A   1      11.252  -5.360  43.093  0.00  0.00    +0.011 C 
ATOM      6  CG1 VAL A   1      11.707  -6.829  43.076  0.00  0.00    +0.009 C 
ATOM      7  CG2 VAL A   1      12.116  -4.548  42.113  0.00  0.00    +0.009 C 
ENDBRANCH   1   5
BRANCH   1   8
ATOM      8  C   VAL A   1       8.873  -5.724  43.877  0.00  0.00    +0.322 C 
ATOM      9  O   VAL A   1       8.270  -6.826  43.769  0.00  0.00    -0.249 OA
BRANCH   8  10
ATOM     10  OXT VAL A   1       8.726  -4.964  45.034  0.00  0.00    -0.479 OA
ATOM     11  HXT VAL A   1       8.652  -5.409  45.941  0.00  0.00    +0.295 HD
ENDBRANCH   8  10
ENDBRANCH   1   8
TORSDOF 4
ENDMDL
MODEL 9
REMARK VINA RESULT:      -3.7     24.020     24.715
REMARK  Name = peptide_9_VGAGRGRCNS
REMARK  6 active torsions:
REMARK  status: ('A' for Active; 'I' for Inactive)
REMARK    1  A    between atoms: N_1  and  CA_2
REMARK    2  A    between atoms: CA_2  and  CB_3
REMARK    3  A    between atoms: CA_2  and  C_6
REMARK    4  A    between atoms: CB_3  and  CG1_4
REMARK    5  A    between atoms: CB_3  and  CG2_5
REMARK    6  A    between atoms: C_6  and  OXT_8
REMARK                            x       y       z     vdW  Elec       q    Type
REMARK                         _______ _______ _______ _____ _____    ______ ____
ROOT
ATOM      1  CA  VAL A   1       5.983  -2.595  28.012  0.00  0.00    +0.163 C 
ENDROOT
BRANCH   1   2
ATOM      2  N   VAL A   1       6.163  -1.863  26.755  0.00  0.00    -0.318 NA
ATOM      3  H1  VAL A   1       6.301  -2.543  25.971  0.00  0.00    +0.119 HD
ATOM      4  H2  VAL A   1       7.029  -1.280  26.823  0.00  0.00    +0.119 HD
ENDBRANCH   1   2
BRANCH   1   5
ATOM      5  CB  VAL A   1       5.527  -4.052  27.736  0.00  0.00    +0.011 C 
ATOM      6  CG1 VAL A   1       4.048  -4.259  28.104  0.00  0.00    +0.009 C 
ATOM      7  CG2 VAL A   1       5.743  -4.430  26.261  0.00  0.00    +0.009 C 
ENDBRANCH   1   5
BRANCH   1   8
ATOM      8  C   VAL A   1       7.262  -2.555  28.813  0.00  0.00    +0.322 C 
ATOM      9  O   VAL A   1       8.339  -2.964  28.302  0.00  0.00    -0.249 OA
BRANCH   8  10
ATOM     10  OXT VAL A   1       7.253  -2.075  30.119  0.00  0.00    -0.479 OA
ATOM     11  HXT VAL A   1       6.400  -2.075  30.666  0.00  0.00    +0.295 HD
ENDBRANCH   8  10
ENDBRANCH   1   8
TORSDOF 4
ENDMDL
