MODEL 1
REMARK VINA RESULT:      -4.9      0.000      0.000
REMARK  Name = peptide_21_GEFKMNCDAR
REMARK  5 active torsions:
REMARK  status: ('A' for Active; 'I' for Inactive)
REMARK    1  A    between atoms: N_1  and  CA_2
REMARK    2  A    between atoms: CA_2  and  CB_3
REMARK    3  A    between atoms: CA_2  and  C_10
REMARK    4  A    between atoms: CB_3  and  CG_4
REMARK    5  A    between atoms: C_10  and  OXT_12
REMARK                            x       y       z     vdW  Elec       q    Type
REMARK                         _______ _______ _______ _____ _____    ______ ____
ROOT
ATOM      1  CA  PHE A   1       9.693  -5.815  42.865  0.00  0.00    +0.165 C 
ENDROOT
BRANCH   1   2
ATOM      2  N   PHE A   1       8.796  -6.199  41.772  0.00  0.00    -0.318 NA
ATOM      3  H1  PHE A   1       8.469  -7.179  41.937  0.00  0.00    +0.119 HD
ATOM      4  H2  PHE A   1       9.324  -6.196  40.869  0.00  0.00    +0.119 HD
ENDBRANCH   1   2
BRANCH   1   5
ATOM      5  C   PHE A   1       8.982  -5.991  44.178  0.00  0.00    +0.322 C 
ATOM      6  O   PHE A   1       8.651  -7.143  44.567  0.00  0.00    -0.249 OA
BRANCH   5   7
ATOM      7  OXT PHE A   1       8.702  -4.884  44.973  0.00  0.00    -0.479 OA
ATOM      8  HXT PHE A   1       8.016  -4.939  45.717  0.00  0.00    +0.295 HD
ENDBRANCH   5   7
ENDBRANCH   1   5
BRANCH   1   9
ATOM      9  CB  PHE A   1      10.188  -4.364  42.687  0.00  0.00    +0.065 C 
BRANCH   9  10
ATOM     10  CG  PHE A   1      11.613  -4.318  42.194  0.00  0.00    -0.045 A 
ATOM     11  CD1 PHE A   1      11.955  -3.511  41.096  0.00  0.00    +0.003 A 
ATOM     12  CE1 PHE A   1      13.270  -3.490  40.619  0.00  0.00    +0.000 A 
ATOM     13  CZ  PHE A   1      14.249  -4.278  41.230  0.00  0.00    +0.000 A 
ATOM     14  CE2 PHE A   1      13.914  -5.092  42.317  0.00  0.00    +0.000 A 
ATOM     15  CD2 PHE A   1      12.602  -5.115  42.796  0.00  0.00    +0.003 A 
ENDBRANCH   9  10
ENDBRANCH   1   9
TORSDOF 5
ENDMDL
MODEL 2
REMARK VINA RESULT:      -4.8     16.250     17.197
REMARK  Name = peptide_21_GEFKMNCDAR
REMARK  5 active torsions:
REMARK  status: ('A' for Active; 'I' for Inactive)
REMARK    1  A    between atoms: N_1  and  CA_2
REMARK    2  A    between atoms: CA_2  and  CB_3
REMARK    3  A    between atoms: CA_2  and  C_10
REMARK    4  A    between atoms: CB_3  and  CG_4
REMARK    5  A    between atoms: C_10  and  OXT_12
REMARK                            x       y       z     vdW  Elec       q    Type
REMARK                         _______ _______ _______ _____ _____    ______ ____
ROOT
ATOM      1  CA  PHE A   1       6.919  -2.833  27.963  0.00  0.00    +0.165 C 
ENDROOT
BRANCH   1   2
ATOM      2  N   PHE A   1       8.351  -3.118  27.845  0.00  0.00    -0.318 NA
ATOM      3  H1  PHE A   1       8.481  -4.154  27.782  0.00  0.00    +0.119 HD
ATOM      4  H2  PHE A   1       8.844  -2.795  28.709  0.00  0.00    +0.119 HD
ENDBRANCH   1   2
BRANCH   1   5
ATOM      5  C   PHE A   1       6.476  -3.092  29.376  0.00  0.00    +0.322 C 
ATOM      6  O   PHE A   1       5.890  -4.169  29.666  0.00  0.00    -0.249 OA
BRANCH   5   7
ATOM      7  OXT PHE A   1       6.725  -2.150  30.369  0.00  0.00    -0.479 OA
ATOM      8  HXT PHE A   1       6.576  -2.373  31.347  0.00  0.00    +0.295 HD
ENDBRANCH   5   7
ENDBRANCH   1   5
BRANCH   1   9
ATOM      9  CB  PHE A   1       6.105  -3.674  26.958  0.00  0.00    +0.065 C 
BRANCH   9  10
ATOM     10  CG  PHE A   1       5.474  -2.812  25.892  0.00  0.00    -0.045 A 
ATOM     11  CD1 PHE A   1       4.465  -3.336  25.066  0.00  0.00    +0.003 A 
ATOM     12  CE1 PHE A   1       3.902  -2.547  24.058  0.00  0.00    +0.000 A 
ATOM     13  CZ  PHE A   1       4.344  -1.236  23.864  0.00  0.00    +0.000 A 
ATOM     14  CE2 PHE A   1       5.355  -0.712  24.674  0.00  0.00    +0.000 A 
ATOM     15  CD2 PHE A   1       5.921  -1.496  25.683  0.00  0.00    +0.003 A 
ENDBRANCH   9  10
ENDBRANCH   1   9
TORSDOF 5
ENDMDL
MODEL 3
REMARK VINA RESULT:      -4.8     19.002     21.133
REMARK  Name = peptide_21_GEFKMNCDAR
REMARK  5 active torsions:
REMARK  status: ('A' for Active; 'I' for Inactive)
REMARK    1  A    between atoms: N_1  and  CA_2
REMARK    2  A    between atoms: CA_2  and  CB_3
REMARK    3  A    between atoms: CA_2  and  C_10
REMARK    4  A    between atoms: CB_3  and  CG_4
REMARK    5  A    between atoms: C_10  and  OXT_12
REMARK                            x       y       z     vdW  Elec       q    Type
REMARK                         _______ _______ _______ _____ _____    ______ ____
ROOT
ATOM      1  CA  PHE A   1      -6.634  -0.424  47.777  0.00  0.00    +0.165 C 
ENDROOT
BRANCH   1   2
ATOM      2  N   PHE A   1      -5.433  -0.997  47.164  0.00  0.00    -0.318 NA
ATOM      3  H1  PHE A   1      -5.656  -1.965  46.835  0.00  0.00    +0.119 HD
ATOM      4  H2  PHE A   1      -4.679  -1.080  47.884  0.00  0.00    +0.119 HD
ENDBRANCH   1   2
BRANCH   1   5
ATOM      5  C   PHE A   1      -6.231   0.478  48.911  0.00  0.00    +0.322 C 
ATOM      6  O   PHE A   1      -5.384   0.087  49.758  0.00  0.00    -0.249 OA
BRANCH   5   7
ATOM      7  OXT PHE A   1      -6.780   1.753  49.017  0.00  0.00    -0.479 OA
ATOM      8  HXT PHE A   1      -6.919   2.328  48.194  0.00  0.00    +0.295 HD
ENDBRANCH   5   7
ENDBRANCH   1   5
BRANCH   1   9
ATOM      9  CB  PHE A   1      -7.591  -1.534  48.259  0.00  0.00    +0.065 C 
BRANCH   9  10
ATOM     10  CG  PHE A   1      -9.020  -1.242  47.879  0.00  0.00    -0.045 A 
ATOM     11  CD1 PHE A   1      -9.737  -2.144  47.074  0.00  0.00    +0.003 A 
ATOM     12  CE1 PHE A   1     -11.053  -1.859  46.697  0.00  0.00    +0.000 A 
ATOM     13  CZ  PHE A   1     -11.659  -0.671  47.114  0.00  0.00    +0.000 A 
ATOM     14  CE2 PHE A   1     -10.950   0.237  47.906  0.00  0.00    +0.000 A 
ATOM     15  CD2 PHE A   1      -9.635  -0.045  48.285  0.00  0.00    +0.003 A 
ENDBRANCH   9  10
ENDBRANCH   1   9
TORSDOF 5
ENDMDL
MODEL 4
REMARK VINA RESULT:      -4.8     19.785     21.535
REMARK  Name = peptide_21_GEFKMNCDAR
REMARK  5 active torsions:
REMARK  status: ('A' for Active; 'I' for Inactive)
REMARK    1  A    between atoms: N_1  and  CA_2
REMARK    2  A    between atoms: CA_2  and  CB_3
REMARK    3  A    between atoms: CA_2  and  C_10
REMARK    4  A    between atoms: CB_3  and  CG_4
REMARK    5  A    between atoms: C_10  and  OXT_12
REMARK                            x       y       z     vdW  Elec       q    Type
REMARK                         _______ _______ _______ _____ _____    ______ ____
ROOT
ATOM      1  CA  PHE A   1     -10.688  -1.016  47.149  0.00  0.00    +0.165 C 
ENDROOT
BRANCH   1   2
ATOM      2  N   PHE A   1     -11.297  -0.820  45.831  0.00  0.00    -0.318 NA
ATOM      3  H1  PHE A   1     -11.494   0.199  45.702  0.00  0.00    +0.119 HD
ATOM      4  H2  PHE A   1     -12.216  -1.320  45.792  0.00  0.00    +0.119 HD
ENDBRANCH   1   2
BRANCH   1   5
ATOM      5  C   PHE A   1     -11.724  -1.549  48.101  0.00  0.00    +0.322 C 
ATOM      6  O   PHE A   1     -12.946  -1.320  47.897  0.00  0.00    -0.249 OA
BRANCH   5   7
ATOM      7  OXT PHE A   1     -11.335  -2.309  49.200  0.00  0.00    -0.479 OA
ATOM      8  HXT PHE A   1     -11.648  -3.267  49.305  0.00  0.00    +0.295 HD
ENDBRANCH   5   7
ENDBRANCH   1   5
BRANCH   1   9
ATOM      9  CB  PHE A   1     -10.071   0.298  47.672  0.00  0.00    +0.065 C 
BRANCH   9  10
ATOM     10  CG  PHE A   1      -8.594   0.153  47.936  0.00  0.00    -0.045 A 
ATOM     11  CD1 PHE A   1      -7.782   1.294  48.053  0.00  0.00    +0.003 A 
ATOM     12  CE1 PHE A   1      -6.406   1.161  48.268  0.00  0.00    +0.000 A 
ATOM     13  CZ  PHE A   1      -5.832  -0.110  48.361  0.00  0.00    +0.000 A 
ATOM     14  CE2 PHE A   1      -6.631  -1.250  48.234  0.00  0.00    +0.000 A 
ATOM     15  CD2 PHE A   1      -8.006  -1.121  48.020  0.00  0.00    +0.003 A 
ENDBRANCH   9  10
ENDBRANCH   1   9
TORSDOF 5
ENDMDL
MODEL 5
REMARK VINA RESULT:      -4.8     34.577     35.797
REMARK  Name = peptide_21_GEFKMNCDAR
REMARK  5 active torsions:
REMARK  status: ('A' for Active; 'I' for Inactive)
REMARK    1  A    between atoms: N_1  and  CA_2
REMARK    2  A    between atoms: CA_2  and  CB_3
REMARK    3  A    between atoms: CA_2  and  C_10
REMARK    4  A    between atoms: CB_3  and  CG_4
REMARK    5  A    between atoms: C_10  and  OXT_12
REMARK                            x       y       z     vdW  Elec       q    Type
REMARK                         _______ _______ _______ _____ _____    ______ ____
ROOT
ATOM      1  CA  PHE A   1      19.384   4.760   9.042  0.00  0.00    +0.165 C 
ENDROOT
BRANCH   1   2
ATOM      2  N   PHE A   1      18.840   3.892  10.088  0.00  0.00    -0.318 NA
ATOM      3  H1  PHE A   1      19.580   3.211  10.376  0.00  0.00    +0.119 HD
ATOM      4  H2  PHE A   1      18.041   3.338   9.702  0.00  0.00    +0.119 HD
ENDBRANCH   1   2
BRANCH   1   5
ATOM      5  C   PHE A   1      20.768   4.296   8.680  0.00  0.00    +0.322 C 
ATOM      6  O   PHE A   1      21.580   5.094   8.140  0.00  0.00    -0.249 OA
BRANCH   5   7
ATOM      7  OXT PHE A   1      21.159   2.989   8.956  0.00  0.00    -0.479 OA
ATOM      8  HXT PHE A   1      22.047   2.632   8.623  0.00  0.00    +0.295 HD
ENDBRANCH   5   7
ENDBRANCH   1   5
BRANCH   1   9
ATOM      9  CB  PHE A   1      19.389   6.235   9.496  0.00  0.00    +0.065 C 
BRANCH   9  10
ATOM     10  CG  PHE A   1      18.006   6.711   9.862  0.00  0.00    -0.045 A 
ATOM     11  CD1 PHE A   1      17.752   7.230  11.143  0.00  0.00    +0.003 A 
ATOM     12  CE1 PHE A   1      16.463   7.644  11.493  0.00  0.00    +0.000 A 
ATOM     13  CZ  PHE A   1      15.418   7.535  10.571  0.00  0.00    +0.000 A 
ATOM     14  CE2 PHE A   1      15.660   7.010   9.299  0.00  0.00    +0.000 A 
ATOM     15  CD2 PHE A   1      16.947   6.596   8.945  0.00  0.00    +0.003 A 
ENDBRANCH   9  10
ENDBRANCH   1   9
TORSDOF 5
ENDMDL
MODEL 6
REMARK VINA RESULT:      -4.7     18.983     20.669
REMARK  Name = peptide_21_GEFKMNCDAR
REMARK  5 active torsions:
REMARK  status: ('A' for Active; 'I' for Inactive)
REMARK    1  A    between atoms: N_1  and  CA_2
REMARK    2  A    between atoms: CA_2  and  CB_3
REMARK    3  A    between atoms: CA_2  and  C_10
REMARK    4  A    between atoms: CB_3  and  CG_4
REMARK    5  A    between atoms: C_10  and  OXT_12
REMARK                            x       y       z     vdW  Elec       q    Type
REMARK                         _______ _______ _______ _____ _____    ______ ____
ROOT
ATOM      1  CA  PHE A   1      -9.995  -1.035  47.921  0.00  0.00    +0.165 C 
ENDROOT
BRANCH   1   2
ATOM      2  N   PHE A   1     -10.921  -1.133  49.052  0.00  0.00    -0.318 NA
ATOM      3  H1  PHE A   1     -11.077  -0.175  49.441  0.00  0.00    +0.119 HD
ATOM      4  H2  PHE A   1     -10.486  -1.709  49.810  0.00  0.00    +0.119 HD
ENDBRANCH   1   2
BRANCH   1   5
ATOM      5  C   PHE A   1     -10.661  -1.573  46.685  0.00  0.00    +0.322 C 
ATOM      6  O   PHE A   1     -10.724  -2.817  46.494  0.00  0.00    -0.249 OA
BRANCH   5   7
ATOM      7  OXT PHE A   1     -11.222  -0.700  45.758  0.00  0.00    -0.479 OA
ATOM      8  HXT PHE A   1     -11.185   0.303  45.901  0.00  0.00    +0.295 HD
ENDBRANCH   5   7
ENDBRANCH   1   5
BRANCH   1   9
ATOM      9  CB  PHE A   1      -8.679  -1.784  48.220  0.00  0.00    +0.065 C 
BRANCH   9  10
ATOM     10  CG  PHE A   1      -7.490  -0.856  48.186  0.00  0.00    -0.045 A 
ATOM     11  CD1 PHE A   1      -7.676   0.534  48.266  0.00  0.00    +0.003 A 
ATOM     12  CE1 PHE A   1      -6.576   1.396  48.204  0.00  0.00    +0.000 A 
ATOM     13  CZ  PHE A   1      -5.287   0.877  48.055  0.00  0.00    +0.000 A 
ATOM     14  CE2 PHE A   1      -5.095  -0.504  47.964  0.00  0.00    +0.000 A 
ATOM     15  CD2 PHE A   1      -6.191  -1.369  48.026  0.00  0.00    +0.003 A 
ENDBRANCH   9  10
ENDBRANCH   1   9
TORSDOF 5
ENDMDL
MODEL 7
REMARK VINA RESULT:      -4.7     35.194     36.099
REMARK  Name = peptide_21_GEFKMNCDAR
REMARK  5 active torsions:
REMARK  status: ('A' for Active; 'I' for Inactive)
REMARK    1  A    between atoms: N_1  and  CA_2
REMARK    2  A    between atoms: CA_2  and  CB_3
REMARK    3  A    between atoms: CA_2  and  C_10
REMARK    4  A    between atoms: CB_3  and  CG_4
REMARK    5  A    between atoms: C_10  and  OXT_12
REMARK                            x       y       z     vdW  Elec       q    Type
REMARK                         _______ _______ _______ _____ _____    ______ ____
ROOT
ATOM      1  CA  PHE A   1      21.436   5.693   9.826  0.00  0.00    +0.165 C 
ENDROOT
BRANCH   1   2
ATOM      2  N   PHE A   1      22.652   6.452  10.125  0.00  0.00    -0.318 NA
ATOM      3  H1  PHE A   1      23.442   5.779  10.256  0.00  0.00    +0.119 HD
ATOM      4  H2  PHE A   1      22.530   6.967  11.028  0.00  0.00    +0.119 HD
ENDBRANCH   1   2
BRANCH   1   5
ATOM      5  C   PHE A   1      21.811   4.378   9.200  0.00  0.00    +0.322 C 
ATOM      6  O   PHE A   1      22.749   3.692   9.687  0.00  0.00    -0.249 OA
BRANCH   5   7
ATOM      7  OXT PHE A   1      21.112   3.909   8.092  0.00  0.00    -0.479 OA
ATOM      8  HXT PHE A   1      21.148   4.403   7.208  0.00  0.00    +0.295 HD
ENDBRANCH   5   7
ENDBRANCH   1   5
BRANCH   1   9
ATOM      9  CB  PHE A   1      20.494   6.500   8.909  0.00  0.00    +0.065 C 
BRANCH   9  10
ATOM     10  CG  PHE A   1      19.067   6.454   9.396  0.00  0.00    -0.045 A 
ATOM     11  CD1 PHE A   1      18.595   7.426  10.295  0.00  0.00    +0.003 A 
ATOM     12  CE1 PHE A   1      17.281   7.366  10.770  0.00  0.00    +0.000 A 
ATOM     13  CZ  PHE A   1      16.433   6.335  10.357  0.00  0.00    +0.000 A 
ATOM     14  CE2 PHE A   1      16.898   5.359   9.472  0.00  0.00    +0.000 A 
ATOM     15  CD2 PHE A   1      18.210   5.415   8.994  0.00  0.00    +0.003 A 
ENDBRANCH   9  10
ENDBRANCH   1   9
TORSDOF 5
ENDMDL
MODEL 8
REMARK VINA RESULT:      -4.5     20.100     20.948
REMARK  Name = peptide_21_GEFKMNCDAR
REMARK  5 active torsions:
REMARK  status: ('A' for Active; 'I' for Inactive)
REMARK    1  A    between atoms: N_1  and  CA_2
REMARK    2  A    between atoms: CA_2  and  CB_3
REMARK    3  A    between atoms: CA_2  and  C_10
REMARK    4  A    between atoms: CB_3  and  CG_4
REMARK    5  A    between atoms: C_10  and  OXT_12
REMARK                            x       y       z     vdW  Elec       q    Type
REMARK                         _______ _______ _______ _____ _____    ______ ____
ROOT
ATOM      1  CA  PHE A   1       0.779   1.011  25.329  0.00  0.00    +0.165 C 
ENDROOT
BRANCH   1   2
ATOM      2  N   PHE A   1       0.176   0.321  26.471  0.00  0.00    -0.318 NA
ATOM      3  H1  PHE A   1       0.206   0.957  27.301  0.00  0.00    +0.119 HD
ATOM      4  H2  PHE A   1       0.744  -0.525  26.708  0.00  0.00    +0.119 HD
ENDBRANCH   1   2
BRANCH   1   5
ATOM      5  C   PHE A   1      -0.133   2.119  24.879  0.00  0.00    +0.322 C 
ATOM      6  O   PHE A   1      -1.290   2.221  25.368  0.00  0.00    -0.249 OA
BRANCH   5   7
ATOM      7  OXT PHE A   1       0.304   3.042  23.934  0.00  0.00    -0.479 OA
ATOM      8  HXT PHE A   1       0.795   2.739  23.101  0.00  0.00    +0.295 HD
ENDBRANCH   5   7
ENDBRANCH   1   5
BRANCH   1   9
ATOM      9  CB  PHE A   1       1.069   0.024  24.179  0.00  0.00    +0.065 C 
BRANCH   9  10
ATOM     10  CG  PHE A   1       2.456  -0.559  24.282  0.00  0.00    -0.045 A 
ATOM     11  CD1 PHE A   1       3.582   0.280  24.225  0.00  0.00    +0.003 A 
ATOM     12  CE1 PHE A   1       4.869  -0.263  24.291  0.00  0.00    +0.000 A 
ATOM     13  CZ  PHE A   1       5.041  -1.645  24.405  0.00  0.00    +0.000 A 
ATOM     14  CE2 PHE A   1       3.928  -2.487  24.451  0.00  0.00    +0.000 A 
ATOM     15  CD2 PHE A   1       2.639  -1.949  24.387  0.00  0.00    +0.003 A 
ENDBRANCH   9  10
ENDBRANCH   1   9
TORSDOF 5
ENDMDL
MODEL 9
REMARK VINA RESULT:      -4.5     35.261     36.099
REMARK  Name = peptide_21_GEFKMNCDAR
REMARK  5 active torsions:
REMARK  status: ('A' for Active; 'I' for Inactive)
REMARK    1  A    between atoms: N_1  and  CA_2
REMARK    2  A    between atoms: CA_2  and  CB_3
REMARK    3  A    between atoms: CA_2  and  C_10
REMARK    4  A    between atoms: CB_3  and  CG_4
REMARK    5  A    between atoms: C_10  and  OXT_12
REMARK                            x       y       z     vdW  Elec       q    Type
REMARK                         _______ _______ _______ _____ _____    ______ ____
ROOT
ATOM      1  CA  PHE A   1      18.066   6.577  10.200  0.00  0.00    +0.165 C 
ENDROOT
BRANCH   1   2
ATOM      2  N   PHE A   1      17.294   6.214  11.391  0.00  0.00    -0.318 NA
ATOM      3  H1  PHE A   1      16.521   6.907  11.513  0.00  0.00    +0.119 HD
ATOM      4  H2  PHE A   1      17.906   6.279  12.237  0.00  0.00    +0.119 HD
ENDBRANCH   1   2
BRANCH   1   5
ATOM      5  C   PHE A   1      17.211   7.416   9.291  0.00  0.00    +0.322 C 
ATOM      6  O   PHE A   1      16.719   8.499   9.708  0.00  0.00    -0.249 OA
BRANCH   5   7
ATOM      7  OXT PHE A   1      16.976   7.007   7.981  0.00  0.00    -0.479 OA
ATOM      8  HXT PHE A   1      16.228   6.358   7.767  0.00  0.00    +0.295 HD
ENDBRANCH   5   7
ENDBRANCH   1   5
BRANCH   1   9
ATOM      9  CB  PHE A   1      18.586   5.319   9.475  0.00  0.00    +0.065 C 
BRANCH   9  10
ATOM     10  CG  PHE A   1      20.085   5.349   9.311  0.00  0.00    -0.045 A 
ATOM     11  CD1 PHE A   1      20.814   4.149   9.251  0.00  0.00    +0.003 A 
ATOM     12  CE1 PHE A   1      22.207   4.177   9.130  0.00  0.00    +0.000 A 
ATOM     13  CZ  PHE A   1      22.881   5.400   9.075  0.00  0.00    +0.000 A 
ATOM     14  CE2 PHE A   1      22.165   6.597   9.146  0.00  0.00    +0.000 A 
ATOM     15  CD2 PHE A   1      20.772   6.574   9.266  0.00  0.00    +0.003 A 
ENDBRANCH   9  10
ENDBRANCH   1   9
TORSDOF 5
ENDMDL
