MODEL 1
REMARK VINA RESULT:      -5.1      0.000      0.000
REMARK  Name = peptide_40_GIRCEQGMAT
REMARK  6 active torsions:
REMARK  status: ('A' for Active; 'I' for Inactive)
REMARK    1  A    between atoms: N_1  and  CA_2
REMARK    2  A    between atoms: CA_2  and  CB_3
REMARK    3  A    between atoms: CA_2  and  C_11
REMARK    4  A    between atoms: CB_3  and  CG_4
REMARK    5  A    between atoms: CZ_7  and  OH_8
REMARK    6  A    between atoms: C_11  and  OXT_13
REMARK                            x       y       z     vdW  Elec       q    Type
REMARK                         _______ _______ _______ _____ _____    ______ ____
ROOT
ATOM      1  CB  TYR A   1     -10.827  -2.209  47.794  0.00  0.00    +0.065 C 
ENDROOT
BRANCH   1   2
ATOM      2  CG  TYR A   1      -9.869  -1.049  47.869  0.00  0.00    -0.045 A 
ATOM      3  CD1 TYR A   1      -8.486  -1.274  47.980  0.00  0.00    +0.007 A 
ATOM      4  CE1 TYR A   1      -7.603  -0.195  48.077  0.00  0.00    +0.045 A 
ATOM      5  CZ  TYR A   1      -8.090   1.116  48.073  0.00  0.00    +0.117 A 
ATOM      6  CE2 TYR A   1      -9.468   1.346  47.972  0.00  0.00    +0.045 A 
ATOM      7  CD2 TYR A   1     -10.354   0.269  47.874  0.00  0.00    +0.007 A 
BRANCH   5   8
ATOM      8  OH  TYR A   1      -7.197   2.182  48.171  0.00  0.00    -0.507 OA
ATOM      9  HH  TYR A   1      -6.584   2.286  48.971  0.00  0.00    +0.292 HD
ENDBRANCH   5   8
ENDBRANCH   1   2
BRANCH   1  10
ATOM     10  CA  TYR A   1     -11.912  -1.972  46.728  0.00  0.00    +0.165 C 
BRANCH  10  11
ATOM     11  N   TYR A   1     -12.990  -2.955  46.859  0.00  0.00    -0.318 NA
ATOM     12  H1  TYR A   1     -13.144  -3.431  45.940  0.00  0.00    +0.119 HD
ATOM     13  H2  TYR A   1     -13.875  -2.453  47.104  0.00  0.00    +0.119 HD
ENDBRANCH  10  11
BRANCH  10  14
ATOM     14  C   TYR A   1     -11.313  -2.016  45.347  0.00  0.00    +0.322 C 
ATOM     15  O   TYR A   1     -10.559  -2.968  45.009  0.00  0.00    -0.249 OA
BRANCH  14  16
ATOM     16  OXT TYR A   1     -11.591  -0.997  44.440  0.00  0.00    -0.479 OA
ATOM     17  HXT TYR A   1     -12.047  -0.144  44.741  0.00  0.00    +0.295 HD
ENDBRANCH  14  16
ENDBRANCH  10  14
ENDBRANCH   1  10
TORSDOF 6
ENDMDL
MODEL 2
REMARK VINA RESULT:      -4.9     46.332     47.019
REMARK  Name = peptide_40_GIRCEQGMAT
REMARK  6 active torsions:
REMARK  status: ('A' for Active; 'I' for Inactive)
REMARK    1  A    between atoms: N_1  and  CA_2
REMARK    2  A    between atoms: CA_2  and  CB_3
REMARK    3  A    between atoms: CA_2  and  C_11
REMARK    4  A    between atoms: CB_3  and  CG_4
REMARK    5  A    between atoms: CZ_7  and  OH_8
REMARK    6  A    between atoms: C_11  and  OXT_13
REMARK                            x       y       z     vdW  Elec       q    Type
REMARK                         _______ _______ _______ _____ _____    ______ ____
ROOT
ATOM      1  CB  TYR A   1      17.324   7.481   9.700  0.00  0.00    +0.065 C 
ENDROOT
BRANCH   1   2
ATOM      2  CG  TYR A   1      18.277   6.338   9.466  0.00  0.00    -0.045 A 
ATOM      3  CD1 TYR A   1      17.800   5.019   9.380  0.00  0.00    +0.007 A 
ATOM      4  CE1 TYR A   1      18.690   3.958   9.190  0.00  0.00    +0.045 A 
ATOM      5  CZ  TYR A   1      20.064   4.202   9.092  0.00  0.00    +0.117 A 
ATOM      6  CE2 TYR A   1      20.546   5.513   9.186  0.00  0.00    +0.045 A 
ATOM      7  CD2 TYR A   1      19.658   6.576   9.376  0.00  0.00    +0.007 A 
BRANCH   5   8
ATOM      8  OH  TYR A   1      20.940   3.134   8.902  0.00  0.00    -0.507 OA
ATOM      9  HH  TYR A   1      20.724   2.206   9.246  0.00  0.00    +0.292 HD
ENDBRANCH   5   8
ENDBRANCH   1   2
BRANCH   1  10
ATOM     10  CA  TYR A   1      16.115   7.039  10.543  0.00  0.00    +0.165 C 
BRANCH  10  11
ATOM     11  N   TYR A   1      14.942   7.861  10.237  0.00  0.00    -0.318 NA
ATOM     12  H1  TYR A   1      14.074   7.284  10.331  0.00  0.00    +0.119 HD
ATOM     13  H2  TYR A   1      15.003   8.175   9.240  0.00  0.00    +0.119 HD
ENDBRANCH  10  11
BRANCH  10  14
ATOM     14  C   TYR A   1      16.444   7.103  12.011  0.00  0.00    +0.322 C 
ATOM     15  O   TYR A   1      16.752   8.201  12.549  0.00  0.00    -0.249 OA
BRANCH  14  16
ATOM     16  OXT TYR A   1      16.410   5.943  12.779  0.00  0.00    -0.479 OA
ATOM     17  HXT TYR A   1      17.160   5.264  12.728  0.00  0.00    +0.295 HD
ENDBRANCH  14  16
ENDBRANCH  10  14
ENDBRANCH   1  10
TORSDOF 6
ENDMDL
MODEL 3
REMARK VINA RESULT:      -4.9     25.521     26.357
REMARK  Name = peptide_40_GIRCEQGMAT
REMARK  6 active torsions:
REMARK  status: ('A' for Active; 'I' for Inactive)
REMARK    1  A    between atoms: N_1  and  CA_2
REMARK    2  A    between atoms: CA_2  and  CB_3
REMARK    3  A    between atoms: CA_2  and  C_11
REMARK    4  A    between atoms: CB_3  and  CG_4
REMARK    5  A    between atoms: CZ_7  and  OH_8
REMARK    6  A    between atoms: C_11  and  OXT_13
REMARK                            x       y       z     vdW  Elec       q    Type
REMARK                         _______ _______ _______ _____ _____    ______ ____
ROOT
ATOM      1  CB  TYR A   1       5.912  -3.745  26.918  0.00  0.00    +0.065 C 
ENDROOT
BRANCH   1   2
ATOM      2  CG  TYR A   1       5.430  -2.834  25.819  0.00  0.00    -0.045 A 
ATOM      3  CD1 TYR A   1       5.930  -1.525  25.709  0.00  0.00    +0.007 A 
ATOM      4  CE1 TYR A   1       5.460  -0.674  24.704  0.00  0.00    +0.045 A 
ATOM      5  CZ  TYR A   1       4.482  -1.116  23.807  0.00  0.00    +0.117 A 
ATOM      6  CE2 TYR A   1       3.973  -2.416  23.919  0.00  0.00    +0.045 A 
ATOM      7  CD2 TYR A   1       4.442  -3.270  24.922  0.00  0.00    +0.007 A 
BRANCH   5   8
ATOM      8  OH  TYR A   1       4.023  -0.255  22.811  0.00  0.00    -0.507 OA
ATOM      9  HH  TYR A   1       3.557   0.615  23.038  0.00  0.00    +0.292 HD
ENDBRANCH   5   8
ENDBRANCH   1   2
BRANCH   1  10
ATOM     10  CA  TYR A   1       6.689  -2.965  27.993  0.00  0.00    +0.165 C 
BRANCH  10  11
ATOM     11  N   TYR A   1       8.133  -3.129  27.809  0.00  0.00    -0.318 NA
ATOM     12  H1  TYR A   1       8.460  -3.972  28.335  0.00  0.00    +0.119 HD
ATOM     13  H2  TYR A   1       8.620  -2.297  28.216  0.00  0.00    +0.119 HD
ENDBRANCH  10  11
BRANCH  10  14
ATOM     14  C   TYR A   1       6.272  -3.407  29.371  0.00  0.00    +0.322 C 
ATOM     15  O   TYR A   1       6.598  -2.731  30.383  0.00  0.00    -0.249 OA
BRANCH  14  16
ATOM     16  OXT TYR A   1       5.524  -4.570  29.526  0.00  0.00    -0.479 OA
ATOM     17  HXT TYR A   1       5.633  -5.348  28.887  0.00  0.00    +0.295 HD
ENDBRANCH  14  16
ENDBRANCH  10  14
ENDBRANCH   1  10
TORSDOF 6
ENDMDL
MODEL 4
REMARK VINA RESULT:      -4.8      1.434      2.038
REMARK  Name = peptide_40_GIRCEQGMAT
REMARK  6 active torsions:
REMARK  status: ('A' for Active; 'I' for Inactive)
REMARK    1  A    between atoms: N_1  and  CA_2
REMARK    2  A    between atoms: CA_2  and  CB_3
REMARK    3  A    between atoms: CA_2  and  C_11
REMARK    4  A    between atoms: CB_3  and  CG_4
REMARK    5  A    between atoms: CZ_7  and  OH_8
REMARK    6  A    between atoms: C_11  and  OXT_13
REMARK                            x       y       z     vdW  Elec       q    Type
REMARK                         _______ _______ _______ _____ _____    ______ ____
ROOT
ATOM      1  CB  TYR A   1     -11.361  -1.850  47.103  0.00  0.00    +0.065 C 
ENDROOT
BRANCH   1   2
ATOM      2  CG  TYR A   1     -10.305  -0.845  47.484  0.00  0.00    -0.045 A 
ATOM      3  CD1 TYR A   1     -10.635   0.512  47.639  0.00  0.00    +0.007 A 
ATOM      4  CE1 TYR A   1      -9.647   1.446  47.965  0.00  0.00    +0.045 A 
ATOM      5  CZ  TYR A   1      -8.320   1.037  48.131  0.00  0.00    +0.117 A 
ATOM      6  CE2 TYR A   1      -7.983  -0.313  47.968  0.00  0.00    +0.045 A 
ATOM      7  CD2 TYR A   1      -8.969  -1.249  47.642  0.00  0.00    +0.007 A 
BRANCH   5   8
ATOM      8  OH  TYR A   1      -7.345   1.979  48.456  0.00  0.00    -0.507 OA
ATOM      9  HH  TYR A   1      -6.363   1.807  48.277  0.00  0.00    +0.292 HD
ENDBRANCH   5   8
ENDBRANCH   1   2
BRANCH   1  10
ATOM     10  CA  TYR A   1     -11.198  -2.308  45.643  0.00  0.00    +0.165 C 
BRANCH  10  11
ATOM     11  N   TYR A   1     -11.582  -1.239  44.719  0.00  0.00    -0.318 NA
ATOM     12  H1  TYR A   1     -12.403  -1.547  44.147  0.00  0.00    +0.119 HD
ATOM     13  H2  TYR A   1     -10.789  -1.064  44.059  0.00  0.00    +0.119 HD
ENDBRANCH  10  11
BRANCH  10  14
ATOM     14  C   TYR A   1     -12.007  -3.552  45.388  0.00  0.00    +0.322 C 
ATOM     15  O   TYR A   1     -11.985  -4.507  46.210  0.00  0.00    -0.249 OA
BRANCH  14  16
ATOM     16  OXT TYR A   1     -12.780  -3.649  44.235  0.00  0.00    -0.479 OA
ATOM     17  HXT TYR A   1     -13.792  -3.622  44.284  0.00  0.00    +0.295 HD
ENDBRANCH  14  16
ENDBRANCH  10  14
ENDBRANCH   1  10
TORSDOF 6
ENDMDL
MODEL 5
REMARK VINA RESULT:      -4.8     20.909     22.447
REMARK  Name = peptide_40_GIRCEQGMAT
REMARK  6 active torsions:
REMARK  status: ('A' for Active; 'I' for Inactive)
REMARK    1  A    between atoms: N_1  and  CA_2
REMARK    2  A    between atoms: CA_2  and  CB_3
REMARK    3  A    between atoms: CA_2  and  C_11
REMARK    4  A    between atoms: CB_3  and  CG_4
REMARK    5  A    between atoms: CZ_7  and  OH_8
REMARK    6  A    between atoms: C_11  and  OXT_13
REMARK                            x       y       z     vdW  Elec       q    Type
REMARK                         _______ _______ _______ _____ _____    ______ ____
ROOT
ATOM      1  CB  TYR A   1      10.112  -4.397  42.724  0.00  0.00    +0.065 C 
ENDROOT
BRANCH   1   2
ATOM      2  CG  TYR A   1      11.535  -4.355  42.229  0.00  0.00    -0.045 A 
ATOM      3  CD1 TYR A   1      11.920  -3.428  41.247  0.00  0.00    +0.007 A 
ATOM      4  CE1 TYR A   1      13.234  -3.411  40.770  0.00  0.00    +0.045 A 
ATOM      5  CZ  TYR A   1      14.173  -4.323  41.263  0.00  0.00    +0.117 A 
ATOM      6  CE2 TYR A   1      13.792  -5.256  42.236  0.00  0.00    +0.045 A 
ATOM      7  CD2 TYR A   1      12.479  -5.276  42.714  0.00  0.00    +0.007 A 
BRANCH   5   8
ATOM      8  OH  TYR A   1      15.480  -4.295  40.778  0.00  0.00    -0.507 OA
ATOM      9  HH  TYR A   1      15.925  -3.426  40.509  0.00  0.00    +0.292 HD
ENDBRANCH   5   8
ENDBRANCH   1   2
BRANCH   1  10
ATOM     10  CA  TYR A   1       9.621  -5.845  42.896  0.00  0.00    +0.165 C 
BRANCH  10  11
ATOM     11  N   TYR A   1       8.739  -6.227  41.790  0.00  0.00    -0.318 NA
ATOM     12  H1  TYR A   1       8.852  -7.248  41.588  0.00  0.00    +0.119 HD
ATOM     13  H2  TYR A   1       9.031  -5.703  40.932  0.00  0.00    +0.119 HD
ENDBRANCH  10  11
BRANCH  10  14
ATOM     14  C   TYR A   1       8.921  -6.011  44.219  0.00  0.00    +0.322 C 
ATOM     15  O   TYR A   1       8.573  -7.155  44.617  0.00  0.00    -0.249 OA
BRANCH  14  16
ATOM     16  OXT TYR A   1       8.655  -4.894  45.006  0.00  0.00    -0.479 OA
ATOM     17  HXT TYR A   1       9.304  -4.116  45.040  0.00  0.00    +0.295 HD
ENDBRANCH  14  16
ENDBRANCH  10  14
ENDBRANCH   1  10
TORSDOF 6
ENDMDL
MODEL 6
REMARK VINA RESULT:      -4.8     46.141     46.817
REMARK  Name = peptide_40_GIRCEQGMAT
REMARK  6 active torsions:
REMARK  status: ('A' for Active; 'I' for Inactive)
REMARK    1  A    between atoms: N_1  and  CA_2
REMARK    2  A    between atoms: CA_2  and  CB_3
REMARK    3  A    between atoms: CA_2  and  C_11
REMARK    4  A    between atoms: CB_3  and  CG_4
REMARK    5  A    between atoms: CZ_7  and  OH_8
REMARK    6  A    between atoms: C_11  and  OXT_13
REMARK                            x       y       z     vdW  Elec       q    Type
REMARK                         _______ _______ _______ _____ _____    ______ ____
ROOT
ATOM      1  CB  TYR A   1      16.632   6.033  10.592  0.00  0.00    +0.065 C 
ENDROOT
BRANCH   1   2
ATOM      2  CG  TYR A   1      17.985   5.744   9.997  0.00  0.00    -0.045 A 
ATOM      3  CD1 TYR A   1      18.911   6.782   9.796  0.00  0.00    +0.007 A 
ATOM      4  CE1 TYR A   1      20.156   6.514   9.219  0.00  0.00    +0.045 A 
ATOM      5  CZ  TYR A   1      20.485   5.212   8.828  0.00  0.00    +0.117 A 
ATOM      6  CE2 TYR A   1      19.562   4.175   9.016  0.00  0.00    +0.045 A 
ATOM      7  CD2 TYR A   1      18.316   4.440   9.594  0.00  0.00    +0.007 A 
BRANCH   5   8
ATOM      8  OH  TYR A   1      21.729   4.960   8.253  0.00  0.00    -0.507 OA
ATOM      9  HH  TYR A   1      21.980   4.037   7.919  0.00  0.00    +0.292 HD
ENDBRANCH   5   8
ENDBRANCH   1   2
BRANCH   1  10
ATOM     10  CA  TYR A   1      16.752   6.872  11.876  0.00  0.00    +0.165 C 
BRANCH  10  11
ATOM     11  N   TYR A   1      16.525   6.040  13.061  0.00  0.00    -0.318 NA
ATOM     12  H1  TYR A   1      16.629   6.622  13.924  0.00  0.00    +0.119 HD
ATOM     13  H2  TYR A   1      17.260   5.296  13.094  0.00  0.00    +0.119 HD
ENDBRANCH  10  11
BRANCH  10  14
ATOM     14  C   TYR A   1      15.788   8.028  11.843  0.00  0.00    +0.322 C 
ATOM     15  O   TYR A   1      15.517   8.602  10.754  0.00  0.00    -0.249 OA
BRANCH  14  16
ATOM     16  OXT TYR A   1      15.195   8.468  13.023  0.00  0.00    -0.479 OA
ATOM     17  HXT TYR A   1      14.548   7.877  13.531  0.00  0.00    +0.295 HD
ENDBRANCH  14  16
ENDBRANCH  10  14
ENDBRANCH   1  10
TORSDOF 6
ENDMDL
MODEL 7
REMARK VINA RESULT:      -4.7     27.750     28.704
REMARK  Name = peptide_40_GIRCEQGMAT
REMARK  6 active torsions:
REMARK  status: ('A' for Active; 'I' for Inactive)
REMARK    1  A    between atoms: N_1  and  CA_2
REMARK    2  A    between atoms: CA_2  and  CB_3
REMARK    3  A    between atoms: CA_2  and  C_11
REMARK    4  A    between atoms: CB_3  and  CG_4
REMARK    5  A    between atoms: CZ_7  and  OH_8
REMARK    6  A    between atoms: C_11  and  OXT_13
REMARK                            x       y       z     vdW  Elec       q    Type
REMARK                         _______ _______ _______ _____ _____    ______ ____
ROOT
ATOM      1  CB  TYR A   1       7.064   8.783  25.468  0.00  0.00    +0.065 C 
ENDROOT
BRANCH   1   2
ATOM      2  CG  TYR A   1       7.839   7.509  25.684  0.00  0.00    -0.045 A 
ATOM      3  CD1 TYR A   1       7.225   6.394  26.280  0.00  0.00    +0.007 A 
ATOM      4  CE1 TYR A   1       7.955   5.223  26.503  0.00  0.00    +0.045 A 
ATOM      5  CZ  TYR A   1       9.305   5.156  26.143  0.00  0.00    +0.117 A 
ATOM      6  CE2 TYR A   1       9.924   6.267  25.558  0.00  0.00    +0.045 A 
ATOM      7  CD2 TYR A   1       9.197   7.440  25.333  0.00  0.00    +0.007 A 
BRANCH   5   8
ATOM      8  OH  TYR A   1      10.020   3.982  26.373  0.00  0.00    -0.507 OA
ATOM      9  HH  TYR A   1      11.032   3.978  26.410  0.00  0.00    +0.292 HD
ENDBRANCH   5   8
ENDBRANCH   1   2
BRANCH   1  10
ATOM     10  CA  TYR A   1       5.594   8.624  25.896  0.00  0.00    +0.165 C 
BRANCH  10  11
ATOM     11  N   TYR A   1       4.704   8.736  24.738  0.00  0.00    -0.318 NA
ATOM     12  H1  TYR A   1       3.781   8.294  24.960  0.00  0.00    +0.119 HD
ATOM     13  H2  TYR A   1       5.122   8.204  23.940  0.00  0.00    +0.119 HD
ENDBRANCH  10  11
BRANCH  10  14
ATOM     14  C   TYR A   1       5.237   9.643  26.945  0.00  0.00    +0.322 C 
ATOM     15  O   TYR A   1       4.665  10.719  26.622  0.00  0.00    -0.249 OA
BRANCH  14  16
ATOM     16  OXT TYR A   1       5.544   9.398  28.280  0.00  0.00    -0.479 OA
ATOM     17  HXT TYR A   1       4.817   9.380  28.986  0.00  0.00    +0.295 HD
ENDBRANCH  14  16
ENDBRANCH  10  14
ENDBRANCH   1  10
TORSDOF 6
ENDMDL
MODEL 8
REMARK VINA RESULT:      -4.7     46.790     47.427
REMARK  Name = peptide_40_GIRCEQGMAT
REMARK  6 active torsions:
REMARK  status: ('A' for Active; 'I' for Inactive)
REMARK    1  A    between atoms: N_1  and  CA_2
REMARK    2  A    between atoms: CA_2  and  CB_3
REMARK    3  A    between atoms: CA_2  and  C_11
REMARK    4  A    between atoms: CB_3  and  CG_4
REMARK    5  A    between atoms: CZ_7  and  OH_8
REMARK    6  A    between atoms: C_11  and  OXT_13
REMARK                            x       y       z     vdW  Elec       q    Type
REMARK                         _______ _______ _______ _____ _____    ______ ____
ROOT
ATOM      1  CB  TYR A   1      17.220   7.378  10.183  0.00  0.00    +0.065 C 
ENDROOT
BRANCH   1   2
ATOM      2  CG  TYR A   1      18.183   6.292   9.779  0.00  0.00    -0.045 A 
ATOM      3  CD1 TYR A   1      17.744   4.963   9.650  0.00  0.00    +0.007 A 
ATOM      4  CE1 TYR A   1      18.646   3.953   9.302  0.00  0.00    +0.045 A 
ATOM      5  CZ  TYR A   1      19.995   4.258   9.088  0.00  0.00    +0.117 A 
ATOM      6  CE2 TYR A   1      20.440   5.579   9.225  0.00  0.00    +0.045 A 
ATOM      7  CD2 TYR A   1      19.540   6.591   9.573  0.00  0.00    +0.007 A 
BRANCH   5   8
ATOM      8  OH  TYR A   1      20.883   3.241   8.742  0.00  0.00    -0.507 OA
ATOM      9  HH  TYR A   1      20.556   2.315   8.493  0.00  0.00    +0.292 HD
ENDBRANCH   5   8
ENDBRANCH   1   2
BRANCH   1  10
ATOM     10  CA  TYR A   1      16.196   7.661   9.070  0.00  0.00    +0.165 C 
BRANCH  10  11
ATOM     11  N   TYR A   1      16.638   8.777   8.231  0.00  0.00    -0.318 NA
ATOM     12  H1  TYR A   1      17.199   8.411   7.427  0.00  0.00    +0.119 HD
ATOM     13  H2  TYR A   1      17.267   9.394   8.797  0.00  0.00    +0.119 HD
ENDBRANCH  10  11
BRANCH  10  14
ATOM     14  C   TYR A   1      14.839   7.941   9.661  0.00  0.00    +0.322 C 
ATOM     15  O   TYR A   1      13.797   7.771   8.974  0.00  0.00    -0.249 OA
BRANCH  14  16
ATOM     16  OXT TYR A   1      14.737   8.394  10.973  0.00  0.00    -0.479 OA
ATOM     17  HXT TYR A   1      14.360   7.798  11.701  0.00  0.00    +0.295 HD
ENDBRANCH  14  16
ENDBRANCH  10  14
ENDBRANCH   1  10
TORSDOF 6
ENDMDL
MODEL 9
REMARK VINA RESULT:      -4.7     24.839     25.711
REMARK  Name = peptide_40_GIRCEQGMAT
REMARK  6 active torsions:
REMARK  status: ('A' for Active; 'I' for Inactive)
REMARK    1  A    between atoms: N_1  and  CA_2
REMARK    2  A    between atoms: CA_2  and  CB_3
REMARK    3  A    between atoms: CA_2  and  C_11
REMARK    4  A    between atoms: CB_3  and  CG_4
REMARK    5  A    between atoms: CZ_7  and  OH_8
REMARK    6  A    between atoms: C_11  and  OXT_13
REMARK                            x       y       z     vdW  Elec       q    Type
REMARK                         _______ _______ _______ _____ _____    ______ ____
ROOT
ATOM      1  CB  TYR A   1       0.880   0.226  24.228  0.00  0.00    +0.065 C 
ENDROOT
BRANCH   1   2
ATOM      2  CG  TYR A   1       2.242  -0.417  24.290  0.00  0.00    -0.045 A 
ATOM      3  CD1 TYR A   1       2.366  -1.806  24.457  0.00  0.00    +0.007 A 
ATOM      4  CE1 TYR A   1       3.631  -2.396  24.542  0.00  0.00    +0.045 A 
ATOM      5  CZ  TYR A   1       4.782  -1.605  24.470  0.00  0.00    +0.117 A 
ATOM      6  CE2 TYR A   1       4.664  -0.218  24.314  0.00  0.00    +0.045 A 
ATOM      7  CD2 TYR A   1       3.400   0.374  24.228  0.00  0.00    +0.007 A 
BRANCH   5   8
ATOM      8  OH  TYR A   1       6.037  -2.206  24.557  0.00  0.00    -0.507 OA
ATOM      9  HH  TYR A   1       6.325  -2.925  23.905  0.00  0.00    +0.292 HD
ENDBRANCH   5   8
ENDBRANCH   1   2
BRANCH   1  10
ATOM     10  CA  TYR A   1       0.692   1.251  25.360  0.00  0.00    +0.165 C 
BRANCH  10  11
ATOM     11  N   TYR A   1       0.272   0.585  26.596  0.00  0.00    -0.318 NA
ATOM     12  H1  TYR A   1       0.921   0.847  27.374  0.00  0.00    +0.119 HD
ATOM     13  H2  TYR A   1       0.347  -0.451  26.461  0.00  0.00    +0.119 HD
ENDBRANCH  10  11
BRANCH  10  14
ATOM     14  C   TYR A   1      -0.303   2.306  24.957  0.00  0.00    +0.322 C 
ATOM     15  O   TYR A   1      -1.511   2.210  25.305  0.00  0.00    -0.249 OA
BRANCH  14  16
ATOM     16  OXT TYR A   1       0.112   3.392  24.192  0.00  0.00    -0.479 OA
ATOM     17  HXT TYR A   1      -0.560   4.051  23.818  0.00  0.00    +0.295 HD
ENDBRANCH  14  16
ENDBRANCH  10  14
ENDBRANCH   1  10
TORSDOF 6
ENDMDL
