MODEL 1
REMARK VINA RESULT:      -6.2      0.000      0.000
REMARK  Name = peptide_24_NRCKNDWCLN
REMARK  5 active torsions:
REMARK  status: ('A' for Active; 'I' for Inactive)
REMARK    1  A    between atoms: N_1  and  CA_2
REMARK    2  A    between atoms: CA_2  and  CB_3
REMARK    3  A    between atoms: CA_2  and  C_13
REMARK    4  A    between atoms: CB_3  and  CG_4
REMARK    5  A    between atoms: C_13  and  OXT_15
REMARK                            x       y       z     vdW  Elec       q    Type
REMARK                         _______ _______ _______ _____ _____    ______ ____
ROOT
ATOM      1  CG  TRP A   1      18.349   5.319   9.124  0.00  0.00    -0.020 A 
ATOM      2  CD1 TRP A   1      18.133   3.944   9.111  0.00  0.00    +0.087 A 
ATOM      3  NE1 TRP A   1      19.312   3.281   9.146  0.00  0.00    -0.360 N 
ATOM      4  CE2 TRP A   1      20.268   4.225   9.170  0.00  0.00    +0.047 A 
ATOM      5  CZ2 TRP A   1      21.649   4.030   9.191  0.00  0.00    +0.026 A 
ATOM      6  CH2 TRP A   1      22.475   5.168   9.193  0.00  0.00    +0.002 A 
ATOM      7  CZ3 TRP A   1      21.909   6.463   9.172  0.00  0.00    +0.001 A 
ATOM      8  CE3 TRP A   1      20.513   6.630   9.149  0.00  0.00    +0.010 A 
ATOM      9  CD2 TRP A   1      19.720   5.482   9.153  0.00  0.00    +0.003 A 
ATOM     10  HE1 TRP A   1      19.447   2.246   9.140  0.00  0.00    +0.165 HD
ENDROOT
BRANCH   1  11
ATOM     11  CB  TRP A   1      17.302   6.391   9.022  0.00  0.00    +0.067 C 
BRANCH  11  12
ATOM     12  CA  TRP A   1      16.184   6.194  10.066  0.00  0.00    +0.165 C 
BRANCH  12  13
ATOM     13  N   TRP A   1      14.990   6.962   9.707  0.00  0.00    -0.318 NA
ATOM     14  H1  TRP A   1      14.814   6.845   8.683  0.00  0.00    +0.119 HD
ATOM     15  H2  TRP A   1      15.165   7.980   9.877  0.00  0.00    +0.119 HD
ENDBRANCH  12  13
BRANCH  12  16
ATOM     16  C   TRP A   1      16.646   6.591  11.441  0.00  0.00    +0.322 C 
ATOM     17  O   TRP A   1      17.329   7.637  11.607  0.00  0.00    -0.249 OA
BRANCH  16  18
ATOM     18  OXT TRP A   1      16.344   5.780  12.531  0.00  0.00    -0.479 OA
ATOM     19  HXT TRP A   1      15.386   5.529  12.742  0.00  0.00    +0.295 HD
ENDBRANCH  16  18
ENDBRANCH  12  16
ENDBRANCH  11  12
ENDBRANCH   1  11
TORSDOF 5
ENDMDL
MODEL 2
REMARK VINA RESULT:      -6.2     46.108     47.387
REMARK  Name = peptide_24_NRCKNDWCLN
REMARK  5 active torsions:
REMARK  status: ('A' for Active; 'I' for Inactive)
REMARK    1  A    between atoms: N_1  and  CA_2
REMARK    2  A    between atoms: CA_2  and  CB_3
REMARK    3  A    between atoms: CA_2  and  C_13
REMARK    4  A    between atoms: CB_3  and  CG_4
REMARK    5  A    between atoms: C_13  and  OXT_15
REMARK                            x       y       z     vdW  Elec       q    Type
REMARK                         _______ _______ _______ _____ _____    ______ ____
ROOT
ATOM      1  CG  TRP A   1      -9.470  -0.161  47.867  0.00  0.00    -0.020 A 
ATOM      2  CD1 TRP A   1      -9.827   1.183  47.823  0.00  0.00    +0.087 A 
ATOM      3  NE1 TRP A   1      -8.726   1.966  47.911  0.00  0.00    -0.360 N 
ATOM      4  CE2 TRP A   1      -7.682   1.127  48.021  0.00  0.00    +0.047 A 
ATOM      5  CZ2 TRP A   1      -6.336   1.465  48.157  0.00  0.00    +0.026 A 
ATOM      6  CH2 TRP A   1      -5.403   0.419  48.278  0.00  0.00    +0.002 A 
ATOM      7  CZ3 TRP A   1      -5.832  -0.927  48.263  0.00  0.00    +0.001 A 
ATOM      8  CE3 TRP A   1      -7.196  -1.239  48.127  0.00  0.00    +0.010 A 
ATOM      9  CD2 TRP A   1      -8.096  -0.180  48.003  0.00  0.00    +0.003 A 
ATOM     10  HE1 TRP A   1      -8.700   3.010  47.908  0.00  0.00    +0.165 HD
ENDROOT
BRANCH   1  11
ATOM     11  CB  TRP A   1     -10.407  -1.336  47.871  0.00  0.00    +0.067 C 
BRANCH  11  12
ATOM     12  CA  TRP A   1     -11.702  -1.032  47.090  0.00  0.00    +0.165 C 
BRANCH  12  13
ATOM     13  N   TRP A   1     -12.879  -1.499  47.825  0.00  0.00    -0.318 NA
ATOM     14  H1  TRP A   1     -13.732  -1.282  47.260  0.00  0.00    +0.119 HD
ATOM     15  H2  TRP A   1     -12.962  -0.972  48.725  0.00  0.00    +0.119 HD
ENDBRANCH  12  13
BRANCH  12  16
ATOM     16  C   TRP A   1     -11.675  -1.661  45.725  0.00  0.00    +0.322 C 
ATOM     17  O   TRP A   1     -11.665  -2.915  45.601  0.00  0.00    -0.249 OA
BRANCH  16  18
ATOM     18  OXT TRP A   1     -11.631  -0.853  44.593  0.00  0.00    -0.479 OA
ATOM     19  HXT TRP A   1     -12.021   0.083  44.607  0.00  0.00    +0.295 HD
ENDBRANCH  16  18
ENDBRANCH  12  16
ENDBRANCH  11  12
ENDBRANCH   1  11
TORSDOF 5
ENDMDL
MODEL 3
REMARK VINA RESULT:      -5.7     46.105     47.611
REMARK  Name = peptide_24_NRCKNDWCLN
REMARK  5 active torsions:
REMARK  status: ('A' for Active; 'I' for Inactive)
REMARK    1  A    between atoms: N_1  and  CA_2
REMARK    2  A    between atoms: CA_2  and  CB_3
REMARK    3  A    between atoms: CA_2  and  C_13
REMARK    4  A    between atoms: CB_3  and  CG_4
REMARK    5  A    between atoms: C_13  and  OXT_15
REMARK                            x       y       z     vdW  Elec       q    Type
REMARK                         _______ _______ _______ _____ _____    ______ ____
ROOT
ATOM      1  CG  TRP A   1      -8.636  -0.359  47.749  0.00  0.00    -0.020 A 
ATOM      2  CD1 TRP A   1      -8.985   0.986  47.829  0.00  0.00    +0.087 A 
ATOM      3  NE1 TRP A   1      -7.883   1.749  48.015  0.00  0.00    -0.360 N 
ATOM      4  CE2 TRP A   1      -6.845   0.896  48.065  0.00  0.00    +0.047 A 
ATOM      5  CZ2 TRP A   1      -5.501   1.210  48.261  0.00  0.00    +0.026 A 
ATOM      6  CH2 TRP A   1      -4.576   0.151  48.299  0.00  0.00    +0.002 A 
ATOM      7  CZ3 TRP A   1      -5.011  -1.184  48.144  0.00  0.00    +0.001 A 
ATOM      8  CE3 TRP A   1      -6.373  -1.472  47.949  0.00  0.00    +0.010 A 
ATOM      9  CD2 TRP A   1      -7.265  -0.400  47.911  0.00  0.00    +0.003 A 
ATOM     10  HE1 TRP A   1      -7.852   2.787  48.114  0.00  0.00    +0.165 HD
ENDROOT
BRANCH   1  11
ATOM     11  CB  TRP A   1      -9.579  -1.522  47.619  0.00  0.00    +0.067 C 
BRANCH  11  12
ATOM     12  CA  TRP A   1     -10.611  -1.547  48.764  0.00  0.00    +0.165 C 
BRANCH  12  13
ATOM     13  N   TRP A   1     -10.544  -2.809  49.504  0.00  0.00    -0.318 NA
ATOM     14  H1  TRP A   1      -9.857  -3.438  49.027  0.00  0.00    +0.119 HD
ATOM     15  H2  TRP A   1     -11.475  -3.285  49.468  0.00  0.00    +0.119 HD
ENDBRANCH  12  13
BRANCH  12  16
ATOM     16  C   TRP A   1     -12.006  -1.339  48.244  0.00  0.00    +0.322 C 
ATOM     17  O   TRP A   1     -12.276  -0.344  47.519  0.00  0.00    -0.249 OA
BRANCH  16  18
ATOM     18  OXT TRP A   1     -13.013  -2.236  48.592  0.00  0.00    -0.479 OA
ATOM     19  HXT TRP A   1     -13.831  -2.351  48.005  0.00  0.00    +0.295 HD
ENDBRANCH  16  18
ENDBRANCH  12  16
ENDBRANCH  11  12
ENDBRANCH   1  11
TORSDOF 5
ENDMDL
MODEL 4
REMARK VINA RESULT:      -5.6      3.892      5.552
REMARK  Name = peptide_24_NRCKNDWCLN
REMARK  5 active torsions:
REMARK  status: ('A' for Active; 'I' for Inactive)
REMARK    1  A    between atoms: N_1  and  CA_2
REMARK    2  A    between atoms: CA_2  and  CB_3
REMARK    3  A    between atoms: CA_2  and  C_13
REMARK    4  A    between atoms: CB_3  and  CG_4
REMARK    5  A    between atoms: C_13  and  OXT_15
REMARK                            x       y       z     vdW  Elec       q    Type
REMARK                         _______ _______ _______ _____ _____    ______ ____
ROOT
ATOM      1  CG  TRP A   1      21.429   5.511   8.658  0.00  0.00    -0.020 A 
ATOM      2  CD1 TRP A   1      21.725   4.154   8.742  0.00  0.00    +0.087 A 
ATOM      3  NE1 TRP A   1      20.617   3.449   9.065  0.00  0.00    -0.360 N 
ATOM      4  CE2 TRP A   1      19.629   4.351   9.198  0.00  0.00    +0.047 A 
ATOM      5  CZ2 TRP A   1      18.301   4.104   9.544  0.00  0.00    +0.026 A 
ATOM      6  CH2 TRP A   1      17.432   5.206   9.646  0.00  0.00    +0.002 A 
ATOM      7  CZ3 TRP A   1      17.906   6.515   9.406  0.00  0.00    +0.001 A 
ATOM      8  CE3 TRP A   1      19.251   6.734   9.060  0.00  0.00    +0.010 A 
ATOM      9  CD2 TRP A   1      20.086   5.621   8.961  0.00  0.00    +0.003 A 
ATOM     10  HE1 TRP A   1      20.551   2.416   9.200  0.00  0.00    +0.165 HD
ENDROOT
BRANCH   1  11
ATOM     11  CB  TRP A   1      22.402   6.626   8.394  0.00  0.00    +0.067 C 
BRANCH  11  12
ATOM     12  CA  TRP A   1      23.408   6.786   9.552  0.00  0.00    +0.165 C 
BRANCH  12  13
ATOM     13  N   TRP A   1      22.860   7.639  10.608  0.00  0.00    -0.318 NA
ATOM     14  H1  TRP A   1      23.455   7.535  11.462  0.00  0.00    +0.119 HD
ATOM     15  H2  TRP A   1      21.898   7.310  10.860  0.00  0.00    +0.119 HD
ENDBRANCH  12  13
BRANCH  12  16
ATOM     16  C   TRP A   1      24.711   7.359   9.066  0.00  0.00    +0.322 C 
ATOM     17  O   TRP A   1      24.788   7.893   7.927  0.00  0.00    -0.249 OA
BRANCH  16  18
ATOM     18  OXT TRP A   1      25.846   7.271   9.867  0.00  0.00    -0.479 OA
ATOM     19  HXT TRP A   1      25.858   6.674  10.686  0.00  0.00    +0.295 HD
ENDBRANCH  16  18
ENDBRANCH  12  16
ENDBRANCH  11  12
ENDBRANCH   1  11
TORSDOF 5
ENDMDL
MODEL 5
REMARK VINA RESULT:      -5.4     35.014     36.584
REMARK  Name = peptide_24_NRCKNDWCLN
REMARK  5 active torsions:
REMARK  status: ('A' for Active; 'I' for Inactive)
REMARK    1  A    between atoms: N_1  and  CA_2
REMARK    2  A    between atoms: CA_2  and  CB_3
REMARK    3  A    between atoms: CA_2  and  C_13
REMARK    4  A    between atoms: CB_3  and  CG_4
REMARK    5  A    between atoms: C_13  and  OXT_15
REMARK                            x       y       z     vdW  Elec       q    Type
REMARK                         _______ _______ _______ _____ _____    ______ ____
ROOT
ATOM      1  CG  TRP A   1      10.295  -5.800  43.365  0.00  0.00    -0.020 A 
ATOM      2  CD1 TRP A   1      10.972  -7.011  43.471  0.00  0.00    +0.087 A 
ATOM      3  NE1 TRP A   1      12.209  -6.909  42.933  0.00  0.00    -0.360 N 
ATOM      4  CE2 TRP A   1      12.313  -5.647  42.478  0.00  0.00    +0.047 A 
ATOM      5  CZ2 TRP A   1      13.401  -5.071  41.825  0.00  0.00    +0.026 A 
ATOM      6  CH2 TRP A   1      13.288  -3.730  41.414  0.00  0.00    +0.002 A 
ATOM      7  CZ3 TRP A   1      12.101  -3.005  41.660  0.00  0.00    +0.001 A 
ATOM      8  CE3 TRP A   1      11.018  -3.613  42.319  0.00  0.00    +0.010 A 
ATOM      9  CD2 TRP A   1      11.163  -4.941  42.719  0.00  0.00    +0.003 A 
ATOM     10  HE1 TRP A   1      12.928  -7.662  42.871  0.00  0.00    +0.165 HD
ENDROOT
BRANCH   1  11
ATOM     11  CB  TRP A   1       8.875  -5.528  43.777  0.00  0.00    +0.067 C 
BRANCH  11  12
ATOM     12  CA  TRP A   1       8.248  -6.745  44.486  0.00  0.00    +0.165 C 
BRANCH  12  13
ATOM     13  N   TRP A   1       7.395  -7.504  43.569  0.00  0.00    -0.318 NA
ATOM     14  H1  TRP A   1       7.929  -7.681  42.687  0.00  0.00    +0.119 HD
ATOM     15  H2  TRP A   1       6.557  -6.930  43.314  0.00  0.00    +0.119 HD
ENDBRANCH  12  13
BRANCH  12  16
ATOM     16  C   TRP A   1       7.449  -6.323  45.688  0.00  0.00    +0.322 C 
ATOM     17  O   TRP A   1       6.458  -5.554  45.558  0.00  0.00    -0.249 OA
BRANCH  16  18
ATOM     18  OXT TRP A   1       7.824  -6.760  46.955  0.00  0.00    -0.479 OA
ATOM     19  HXT TRP A   1       7.768  -6.141  47.756  0.00  0.00    +0.295 HD
ENDBRANCH  16  18
ENDBRANCH  12  16
ENDBRANCH  11  12
ENDBRANCH   1  11
TORSDOF 5
ENDMDL
MODEL 6
REMARK VINA RESULT:      -5.4      3.100      5.475
REMARK  Name = peptide_24_NRCKNDWCLN
REMARK  5 active torsions:
REMARK  status: ('A' for Active; 'I' for Inactive)
REMARK    1  A    between atoms: N_1  and  CA_2
REMARK    2  A    between atoms: CA_2  and  CB_3
REMARK    3  A    between atoms: CA_2  and  C_13
REMARK    4  A    between atoms: CB_3  and  CG_4
REMARK    5  A    between atoms: C_13  and  OXT_15
REMARK                            x       y       z     vdW  Elec       q    Type
REMARK                         _______ _______ _______ _____ _____    ______ ____
ROOT
ATOM      1  CG  TRP A   1      19.790   7.313   9.493  0.00  0.00    -0.020 A 
ATOM      2  CD1 TRP A   1      19.633   8.562  10.086  0.00  0.00    +0.087 A 
ATOM      3  NE1 TRP A   1      18.360   8.724  10.514  0.00  0.00    -0.360 N 
ATOM      4  CE2 TRP A   1      17.711   7.593  10.185  0.00  0.00    +0.047 A 
ATOM      5  CZ2 TRP A   1      16.367   7.296  10.405  0.00  0.00    +0.026 A 
ATOM      6  CH2 TRP A   1      15.887   6.051   9.958  0.00  0.00    +0.002 A 
ATOM      7  CZ3 TRP A   1      16.751   5.143   9.307  0.00  0.00    +0.001 A 
ATOM      8  CE3 TRP A   1      18.102   5.471   9.097  0.00  0.00    +0.010 A 
ATOM      9  CD2 TRP A   1      18.550   6.710   9.556  0.00  0.00    +0.003 A 
ATOM     10  HE1 TRP A   1      17.962   9.565  10.989  0.00  0.00    +0.165 HD
ENDROOT
BRANCH   1  11
ATOM     11  CB  TRP A   1      21.032   6.786   8.831  0.00  0.00    +0.067 C 
BRANCH  11  12
ATOM     12  CA  TRP A   1      21.822   5.852   9.770  0.00  0.00    +0.165 C 
BRANCH  12  13
ATOM     13  N   TRP A   1      23.173   6.365  10.005  0.00  0.00    -0.318 NA
ATOM     14  H1  TRP A   1      23.735   5.620  10.477  0.00  0.00    +0.119 HD
ATOM     15  H2  TRP A   1      23.129   7.180  10.660  0.00  0.00    +0.119 HD
ENDBRANCH  12  13
BRANCH  12  16
ATOM     16  C   TRP A   1      21.901   4.458   9.211  0.00  0.00    +0.322 C 
ATOM     17  O   TRP A   1      22.692   3.614   9.712  0.00  0.00    -0.249 OA
BRANCH  16  18
ATOM     18  OXT TRP A   1      21.119   4.109   8.114  0.00  0.00    -0.479 OA
ATOM     19  HXT TRP A   1      20.111   4.037   8.197  0.00  0.00    +0.295 HD
ENDBRANCH  16  18
ENDBRANCH  12  16
ENDBRANCH  11  12
ENDBRANCH   1  11
TORSDOF 5
ENDMDL
MODEL 7
REMARK VINA RESULT:      -5.3     34.371     35.630
REMARK  Name = peptide_24_NRCKNDWCLN
REMARK  5 active torsions:
REMARK  status: ('A' for Active; 'I' for Inactive)
REMARK    1  A    between atoms: N_1  and  CA_2
REMARK    2  A    between atoms: CA_2  and  CB_3
REMARK    3  A    between atoms: CA_2  and  C_13
REMARK    4  A    between atoms: CB_3  and  CG_4
REMARK    5  A    between atoms: C_13  and  OXT_15
REMARK                            x       y       z     vdW  Elec       q    Type
REMARK                         _______ _______ _______ _____ _____    ______ ____
ROOT
ATOM      1  CG  TRP A   1      12.184  -4.016  42.271  0.00  0.00    -0.020 A 
ATOM      2  CD1 TRP A   1      11.200  -3.065  42.021  0.00  0.00    +0.087 A 
ATOM      3  NE1 TRP A   1       9.972  -3.585  42.251  0.00  0.00    -0.360 N 
ATOM      4  CE2 TRP A   1      10.174  -4.859  42.631  0.00  0.00    +0.047 A 
ATOM      5  CZ2 TRP A   1       9.205  -5.807  42.959  0.00  0.00    +0.026 A 
ATOM      6  CH2 TRP A   1       9.640  -7.097  43.314  0.00  0.00    +0.002 A 
ATOM      7  CZ3 TRP A   1      11.018  -7.408  43.330  0.00  0.00    +0.001 A 
ATOM      8  CE3 TRP A   1      11.973  -6.432  42.994  0.00  0.00    +0.010 A 
ATOM      9  CD2 TRP A   1      11.511  -5.161  42.652  0.00  0.00    +0.003 A 
ATOM     10  HE1 TRP A   1       9.056  -3.098  42.138  0.00  0.00    +0.165 HD
ENDROOT
BRANCH   1  11
ATOM     11  CB  TRP A   1      13.663  -3.850  42.064  0.00  0.00    +0.067 C 
BRANCH  11  12
ATOM     12  CA  TRP A   1      14.252  -2.782  43.008  0.00  0.00    +0.165 C 
BRANCH  12  13
ATOM     13  N   TRP A   1      15.214  -1.932  42.303  0.00  0.00    -0.318 NA
ATOM     14  H1  TRP A   1      15.899  -1.557  42.999  0.00  0.00    +0.119 HD
ATOM     15  H2  TRP A   1      14.716  -1.111  41.886  0.00  0.00    +0.119 HD
ENDBRANCH  12  13
BRANCH  12  16
ATOM     16  C   TRP A   1      14.915  -3.414  44.200  0.00  0.00    +0.322 C 
ATOM     17  O   TRP A   1      15.051  -4.666  44.266  0.00  0.00    -0.249 OA
BRANCH  16  18
ATOM     18  OXT TRP A   1      15.353  -2.614  45.251  0.00  0.00    -0.479 OA
ATOM     19  HXT TRP A   1      15.903  -3.005  46.007  0.00  0.00    +0.295 HD
ENDBRANCH  16  18
ENDBRANCH  12  16
ENDBRANCH  11  12
ENDBRANCH   1  11
TORSDOF 5
ENDMDL
MODEL 8
REMARK VINA RESULT:      -5.2     18.557     20.015
REMARK  Name = peptide_24_NRCKNDWCLN
REMARK  5 active torsions:
REMARK  status: ('A' for Active; 'I' for Inactive)
REMARK    1  A    between atoms: N_1  and  CA_2
REMARK    2  A    between atoms: CA_2  and  CB_3
REMARK    3  A    between atoms: CA_2  and  C_13
REMARK    4  A    between atoms: CB_3  and  CG_4
REMARK    5  A    between atoms: C_13  and  OXT_15
REMARK                            x       y       z     vdW  Elec       q    Type
REMARK                         _______ _______ _______ _____ _____    ______ ____
ROOT
ATOM      1  CG  TRP A   1       8.428   8.067  25.246  0.00  0.00    -0.020 A 
ATOM      2  CD1 TRP A   1       9.774   8.338  25.023  0.00  0.00    +0.087 A 
ATOM      3  NE1 TRP A   1      10.543   7.324  25.485  0.00  0.00    -0.360 N 
ATOM      4  CE2 TRP A   1       9.692   6.423  26.008  0.00  0.00    +0.047 A 
ATOM      5  CZ2 TRP A   1      10.016   5.214  26.622  0.00  0.00    +0.026 A 
ATOM      6  CH2 TRP A   1       8.961   4.427  27.121  0.00  0.00    +0.002 A 
ATOM      7  CZ3 TRP A   1       7.623   4.863  26.997  0.00  0.00    +0.001 A 
ATOM      8  CE3 TRP A   1       7.327   6.088  26.374  0.00  0.00    +0.010 A 
ATOM      9  CD2 TRP A   1       8.393   6.843  25.885  0.00  0.00    +0.003 A 
ATOM     10  HE1 TRP A   1      11.584   7.265  25.453  0.00  0.00    +0.165 HD
ENDROOT
BRANCH   1  11
ATOM     11  CB  TRP A   1       7.269   8.976  24.945  0.00  0.00    +0.067 C 
BRANCH  11  12
ATOM     12  CA  TRP A   1       6.865   9.808  26.178  0.00  0.00    +0.165 C 
BRANCH  12  13
ATOM     13  N   TRP A   1       7.963   9.880  27.145  0.00  0.00    -0.318 NA
ATOM     14  H1  TRP A   1       7.565   9.784  28.108  0.00  0.00    +0.119 HD
ATOM     15  H2  TRP A   1       8.416  10.822  27.090  0.00  0.00    +0.119 HD
ENDBRANCH  12  13
BRANCH  12  16
ATOM     16  C   TRP A   1       5.643   9.238  26.843  0.00  0.00    +0.322 C 
ATOM     17  O   TRP A   1       5.468   9.376  28.084  0.00  0.00    -0.249 OA
BRANCH  16  18
ATOM     18  OXT TRP A   1       4.715   8.525  26.089  0.00  0.00    -0.479 OA
ATOM     19  HXT TRP A   1       4.527   7.549  26.284  0.00  0.00    +0.295 HD
ENDBRANCH  16  18
ENDBRANCH  12  16
ENDBRANCH  11  12
ENDBRANCH   1  11
TORSDOF 5
ENDMDL
MODEL 9
REMARK VINA RESULT:      -5.1     21.583     23.043
REMARK  Name = peptide_24_NRCKNDWCLN
REMARK  5 active torsions:
REMARK  status: ('A' for Active; 'I' for Inactive)
REMARK    1  A    between atoms: N_1  and  CA_2
REMARK    2  A    between atoms: CA_2  and  CB_3
REMARK    3  A    between atoms: CA_2  and  C_13
REMARK    4  A    between atoms: CB_3  and  CG_4
REMARK    5  A    between atoms: C_13  and  OXT_15
REMARK                            x       y       z     vdW  Elec       q    Type
REMARK                         _______ _______ _______ _____ _____    ______ ____
ROOT
ATOM      1  CG  TRP A   1       2.551  -0.182  24.199  0.00  0.00    -0.020 A 
ATOM      2  CD1 TRP A   1       3.572   0.761  24.122  0.00  0.00    +0.087 A 
ATOM      3  NE1 TRP A   1       4.780   0.157  24.212  0.00  0.00    -0.360 N 
ATOM      4  CE2 TRP A   1       4.528  -1.156  24.358  0.00  0.00    +0.047 A 
ATOM      5  CZ2 TRP A   1       5.459  -2.182  24.510  0.00  0.00    +0.026 A 
ATOM      6  CH2 TRP A   1       4.974  -3.493  24.669  0.00  0.00    +0.002 A 
ATOM      7  CZ3 TRP A   1       3.584  -3.745  24.674  0.00  0.00    +0.001 A 
ATOM      8  CE3 TRP A   1       2.667  -2.689  24.520  0.00  0.00    +0.010 A 
ATOM      9  CD2 TRP A   1       3.180  -1.402  24.359  0.00  0.00    +0.003 A 
ATOM     10  HE1 TRP A   1       5.714   0.622  24.189  0.00  0.00    +0.165 HD
ENDROOT
BRANCH   1  11
ATOM     11  CB  TRP A   1       1.075   0.095  24.211  0.00  0.00    +0.067 C 
BRANCH  11  12
ATOM     12  CA  TRP A   1       0.685   1.048  25.359  0.00  0.00    +0.165 C 
BRANCH  12  13
ATOM     13  N   TRP A   1      -0.009   0.325  26.427  0.00  0.00    -0.318 NA
ATOM     14  H1  TRP A   1       0.595  -0.470  26.739  0.00  0.00    +0.119 HD
ATOM     15  H2  TRP A   1      -0.895  -0.088  26.051  0.00  0.00    +0.119 HD
ENDBRANCH  12  13
BRANCH  12  16
ATOM     16  C   TRP A   1      -0.181   2.173  24.864  0.00  0.00    +0.322 C 
ATOM     17  O   TRP A   1      -1.344   2.332  25.322  0.00  0.00    -0.249 OA
BRANCH  16  18
ATOM     18  OXT TRP A   1       0.295   3.025  23.871  0.00  0.00    -0.479 OA
ATOM     19  HXT TRP A   1       1.211   2.885  23.461  0.00  0.00    +0.295 HD
ENDBRANCH  16  18
ENDBRANCH  12  16
ENDBRANCH  11  12
ENDBRANCH   1  11
TORSDOF 5
ENDMDL
