MODEL 1
REMARK VINA RESULT:      -6.2      0.000      0.000
REMARK  Name = peptide_39_VVGEKSAIWK
REMARK  5 active torsions:
REMARK  status: ('A' for Active; 'I' for Inactive)
REMARK    1  A    between atoms: N_1  and  CA_2
REMARK    2  A    between atoms: CA_2  and  CB_3
REMARK    3  A    between atoms: CA_2  and  C_13
REMARK    4  A    between atoms: CB_3  and  CG_4
REMARK    5  A    between atoms: C_13  and  OXT_15
REMARK                            x       y       z     vdW  Elec       q    Type
REMARK                         _______ _______ _______ _____ _____    ______ ____
ROOT
ATOM      1  CG  TRP A   1      18.361   5.308   9.129  0.00  0.00    -0.020 A 
ATOM      2  CD1 TRP A   1      18.148   3.933   9.121  0.00  0.00    +0.087 A 
ATOM      3  NE1 TRP A   1      19.328   3.272   9.158  0.00  0.00    -0.360 N 
ATOM      4  CE2 TRP A   1      20.283   4.218   9.178  0.00  0.00    +0.047 A 
ATOM      5  CZ2 TRP A   1      21.663   4.026   9.199  0.00  0.00    +0.026 A 
ATOM      6  CH2 TRP A   1      22.487   5.166   9.196  0.00  0.00    +0.002 A 
ATOM      7  CZ3 TRP A   1      21.918   6.459   9.171  0.00  0.00    +0.001 A 
ATOM      8  CE3 TRP A   1      20.522   6.623   9.148  0.00  0.00    +0.010 A 
ATOM      9  CD2 TRP A   1      19.732   5.474   9.157  0.00  0.00    +0.003 A 
ATOM     10  HE1 TRP A   1      19.465   2.237   9.156  0.00  0.00    +0.165 HD
ENDROOT
BRANCH   1  11
ATOM     11  CB  TRP A   1      17.311   6.378   9.024  0.00  0.00    +0.067 C 
BRANCH  11  12
ATOM     12  CA  TRP A   1      16.194   6.181  10.069  0.00  0.00    +0.165 C 
BRANCH  12  13
ATOM     13  N   TRP A   1      14.999   6.947   9.709  0.00  0.00    -0.318 NA
ATOM     14  H1  TRP A   1      15.199   7.484   8.833  0.00  0.00    +0.119 HD
ATOM     15  H2  TRP A   1      14.793   7.647  10.460  0.00  0.00    +0.119 HD
ENDBRANCH  12  13
BRANCH  12  16
ATOM     16  C   TRP A   1      16.657   6.582  11.442  0.00  0.00    +0.322 C 
ATOM     17  O   TRP A   1      17.348   7.623  11.604  0.00  0.00    -0.249 OA
BRANCH  16  18
ATOM     18  OXT TRP A   1      16.345   5.781  12.537  0.00  0.00    -0.479 OA
ATOM     19  HXT TRP A   1      16.373   4.770  12.466  0.00  0.00    +0.295 HD
ENDBRANCH  16  18
ENDBRANCH  12  16
ENDBRANCH  11  12
ENDBRANCH   1  11
TORSDOF 5
ENDMDL
MODEL 2
REMARK VINA RESULT:      -6.1     46.070     47.319
REMARK  Name = peptide_39_VVGEKSAIWK
REMARK  5 active torsions:
REMARK  status: ('A' for Active; 'I' for Inactive)
REMARK    1  A    between atoms: N_1  and  CA_2
REMARK    2  A    between atoms: CA_2  and  CB_3
REMARK    3  A    between atoms: CA_2  and  C_13
REMARK    4  A    between atoms: CB_3  and  CG_4
REMARK    5  A    between atoms: C_13  and  OXT_15
REMARK                            x       y       z     vdW  Elec       q    Type
REMARK                         _______ _______ _______ _____ _____    ______ ____
ROOT
ATOM      1  CG  TRP A   1      -9.374  -0.245  47.806  0.00  0.00    -0.020 A 
ATOM      2  CD1 TRP A   1      -9.780   1.087  47.793  0.00  0.00    +0.087 A 
ATOM      3  NE1 TRP A   1      -8.710   1.907  47.910  0.00  0.00    -0.360 N 
ATOM      4  CE2 TRP A   1      -7.636   1.103  48.009  0.00  0.00    +0.047 A 
ATOM      5  CZ2 TRP A   1      -6.305   1.488  48.166  0.00  0.00    +0.026 A 
ATOM      6  CH2 TRP A   1      -5.335   0.474  48.269  0.00  0.00    +0.002 A 
ATOM      7  CZ3 TRP A   1      -5.713  -0.886  48.216  0.00  0.00    +0.001 A 
ATOM      8  CE3 TRP A   1      -7.064  -1.244  48.059  0.00  0.00    +0.010 A 
ATOM      9  CD2 TRP A   1      -8.002  -0.217  47.954  0.00  0.00    +0.003 A 
ATOM     10  HE1 TRP A   1      -8.722   2.950  47.934  0.00  0.00    +0.165 HD
ENDROOT
BRANCH   1  11
ATOM     11  CB  TRP A   1     -10.267  -1.453  47.771  0.00  0.00    +0.067 C 
BRANCH  11  12
ATOM     12  CA  TRP A   1     -11.606  -1.149  47.069  0.00  0.00    +0.165 C 
BRANCH  12  13
ATOM     13  N   TRP A   1     -12.732  -1.701  47.825  0.00  0.00    -0.318 NA
ATOM     14  H1  TRP A   1     -13.400  -2.143  47.152  0.00  0.00    +0.119 HD
ATOM     15  H2  TRP A   1     -13.245  -0.926  48.307  0.00  0.00    +0.119 HD
ENDBRANCH  12  13
BRANCH  12  16
ATOM     16  C   TRP A   1     -11.623  -1.693  45.668  0.00  0.00    +0.322 C 
ATOM     17  O   TRP A   1     -11.614  -2.938  45.467  0.00  0.00    -0.249 OA
BRANCH  16  18
ATOM     18  OXT TRP A   1     -11.616  -0.817  44.586  0.00  0.00    -0.479 OA
ATOM     19  HXT TRP A   1     -12.063  -1.068  43.712  0.00  0.00    +0.295 HD
ENDBRANCH  16  18
ENDBRANCH  12  16
ENDBRANCH  11  12
ENDBRANCH   1  11
TORSDOF 5
ENDMDL
MODEL 3
REMARK VINA RESULT:      -5.3     18.027     19.077
REMARK  Name = peptide_39_VVGEKSAIWK
REMARK  5 active torsions:
REMARK  status: ('A' for Active; 'I' for Inactive)
REMARK    1  A    between atoms: N_1  and  CA_2
REMARK    2  A    between atoms: CA_2  and  CB_3
REMARK    3  A    between atoms: CA_2  and  C_13
REMARK    4  A    between atoms: CB_3  and  CG_4
REMARK    5  A    between atoms: C_13  and  OXT_15
REMARK                            x       y       z     vdW  Elec       q    Type
REMARK                         _______ _______ _______ _____ _____    ______ ____
ROOT
ATOM      1  CG  TRP A   1       8.551   8.064  25.199  0.00  0.00    -0.020 A 
ATOM      2  CD1 TRP A   1       9.892   8.203  24.855  0.00  0.00    +0.087 A 
ATOM      3  NE1 TRP A   1      10.595   7.117  25.250  0.00  0.00    -0.360 N 
ATOM      4  CE2 TRP A   1       9.711   6.301  25.851  0.00  0.00    +0.047 A 
ATOM      5  CZ2 TRP A   1       9.968   5.063  26.439  0.00  0.00    +0.026 A 
ATOM      6  CH2 TRP A   1       8.891   4.380  27.033  0.00  0.00    +0.002 A 
ATOM      7  CZ3 TRP A   1       7.596   4.945  27.028  0.00  0.00    +0.001 A 
ATOM      8  CE3 TRP A   1       7.367   6.197  26.429  0.00  0.00    +0.010 A 
ATOM      9  CD2 TRP A   1       8.454   6.846  25.843  0.00  0.00    +0.003 A 
ATOM     10  HE1 TRP A   1      11.619   6.956  25.126  0.00  0.00    +0.165 HD
ENDROOT
BRANCH   1  11
ATOM     11  CB  TRP A   1       7.464   9.083  24.999  0.00  0.00    +0.067 C 
BRANCH  11  12
ATOM     12  CA  TRP A   1       7.079   9.216  23.512  0.00  0.00    +0.165 C 
BRANCH  12  13
ATOM     13  N   TRP A   1       7.039  10.621  23.104  0.00  0.00    -0.318 NA
ATOM     14  H1  TRP A   1       6.412  11.141  23.760  0.00  0.00    +0.119 HD
ATOM     15  H2  TRP A   1       6.619  10.697  22.148  0.00  0.00    +0.119 HD
ENDBRANCH  12  13
BRANCH  12  16
ATOM     16  C   TRP A   1       5.749   8.571  23.234  0.00  0.00    +0.322 C 
ATOM     17  O   TRP A   1       4.780   9.262  22.817  0.00  0.00    -0.249 OA
BRANCH  16  18
ATOM     18  OXT TRP A   1       5.578   7.210  23.469  0.00  0.00    -0.479 OA
ATOM     19  HXT TRP A   1       6.336   6.557  23.312  0.00  0.00    +0.295 HD
ENDBRANCH  16  18
ENDBRANCH  12  16
ENDBRANCH  11  12
ENDBRANCH   1  11
TORSDOF 5
ENDMDL
MODEL 4
REMARK VINA RESULT:      -5.3     34.349     35.615
REMARK  Name = peptide_39_VVGEKSAIWK
REMARK  5 active torsions:
REMARK  status: ('A' for Active; 'I' for Inactive)
REMARK    1  A    between atoms: N_1  and  CA_2
REMARK    2  A    between atoms: CA_2  and  CB_3
REMARK    3  A    between atoms: CA_2  and  C_13
REMARK    4  A    between atoms: CB_3  and  CG_4
REMARK    5  A    between atoms: C_13  and  OXT_15
REMARK                            x       y       z     vdW  Elec       q    Type
REMARK                         _______ _______ _______ _____ _____    ______ ____
ROOT
ATOM      1  CG  TRP A   1      12.191  -4.001  42.257  0.00  0.00    -0.020 A 
ATOM      2  CD1 TRP A   1      11.195  -3.062  42.007  0.00  0.00    +0.087 A 
ATOM      3  NE1 TRP A   1       9.974  -3.596  42.240  0.00  0.00    -0.360 N 
ATOM      4  CE2 TRP A   1      10.192  -4.867  42.622  0.00  0.00    +0.047 A 
ATOM      5  CZ2 TRP A   1       9.235  -5.826  42.953  0.00  0.00    +0.026 A 
ATOM      6  CH2 TRP A   1       9.686  -7.110  43.309  0.00  0.00    +0.002 A 
ATOM      7  CZ3 TRP A   1      11.067  -7.405  43.323  0.00  0.00    +0.001 A 
ATOM      8  CE3 TRP A   1      12.010  -6.418  42.983  0.00  0.00    +0.010 A 
ATOM      9  CD2 TRP A   1      11.532  -5.153  42.640  0.00  0.00    +0.003 A 
ATOM     10  HE1 TRP A   1       9.052  -3.120  42.129  0.00  0.00    +0.165 HD
ENDROOT
BRANCH   1  11
ATOM     11  CB  TRP A   1      13.668  -3.818  42.047  0.00  0.00    +0.067 C 
BRANCH  11  12
ATOM     12  CA  TRP A   1      14.252  -2.766  43.011  0.00  0.00    +0.165 C 
BRANCH  12  13
ATOM     13  N   TRP A   1      15.219  -1.906  42.325  0.00  0.00    -0.318 NA
ATOM     14  H1  TRP A   1      15.352  -2.265  41.351  0.00  0.00    +0.119 HD
ATOM     15  H2  TRP A   1      16.146  -1.968  42.807  0.00  0.00    +0.119 HD
ENDBRANCH  12  13
BRANCH  12  16
ATOM     16  C   TRP A   1      14.907  -3.418  44.197  0.00  0.00    +0.322 C 
ATOM     17  O   TRP A   1      15.015  -4.672  44.257  0.00  0.00    -0.249 OA
BRANCH  16  18
ATOM     18  OXT TRP A   1      15.370  -2.632  45.248  0.00  0.00    -0.479 OA
ATOM     19  HXT TRP A   1      15.666  -3.054  46.121  0.00  0.00    +0.295 HD
ENDBRANCH  16  18
ENDBRANCH  12  16
ENDBRANCH  11  12
ENDBRANCH   1  11
TORSDOF 5
ENDMDL
MODEL 5
REMARK VINA RESULT:      -5.2     18.559     20.037
REMARK  Name = peptide_39_VVGEKSAIWK
REMARK  5 active torsions:
REMARK  status: ('A' for Active; 'I' for Inactive)
REMARK    1  A    between atoms: N_1  and  CA_2
REMARK    2  A    between atoms: CA_2  and  CB_3
REMARK    3  A    between atoms: CA_2  and  C_13
REMARK    4  A    between atoms: CB_3  and  CG_4
REMARK    5  A    between atoms: C_13  and  OXT_15
REMARK                            x       y       z     vdW  Elec       q    Type
REMARK                         _______ _______ _______ _____ _____    ______ ____
ROOT
ATOM      1  CG  TRP A   1       8.391   8.009  25.236  0.00  0.00    -0.020 A 
ATOM      2  CD1 TRP A   1       9.734   8.285  24.996  0.00  0.00    +0.087 A 
ATOM      3  NE1 TRP A   1      10.513   7.283  25.465  0.00  0.00    -0.360 N 
ATOM      4  CE2 TRP A   1       9.674   6.384  26.008  0.00  0.00    +0.047 A 
ATOM      5  CZ2 TRP A   1      10.011   5.187  26.638  0.00  0.00    +0.026 A 
ATOM      6  CH2 TRP A   1       8.966   4.400  27.157  0.00  0.00    +0.002 A 
ATOM      7  CZ3 TRP A   1       7.624   4.825  27.040  0.00  0.00    +0.001 A 
ATOM      8  CE3 TRP A   1       7.314   6.039  26.402  0.00  0.00    +0.010 A 
ATOM      9  CD2 TRP A   1       8.370   6.794  25.892  0.00  0.00    +0.003 A 
ATOM     10  HE1 TRP A   1      11.555   7.231  25.425  0.00  0.00    +0.165 HD
ENDROOT
BRANCH   1  11
ATOM     11  CB  TRP A   1       7.224   8.905  24.932  0.00  0.00    +0.067 C 
BRANCH  11  12
ATOM     12  CA  TRP A   1       6.831   9.759  26.154  0.00  0.00    +0.165 C 
BRANCH  12  13
ATOM     13  N   TRP A   1       7.941   9.856  27.104  0.00  0.00    -0.318 NA
ATOM     14  H1  TRP A   1       7.606  10.362  27.957  0.00  0.00    +0.119 HD
ATOM     15  H2  TRP A   1       8.711  10.430  26.687  0.00  0.00    +0.119 HD
ENDBRANCH  12  13
BRANCH  12  16
ATOM     16  C   TRP A   1       5.621   9.196  26.846  0.00  0.00    +0.322 C 
ATOM     17  O   TRP A   1       4.757   8.549  26.195  0.00  0.00    -0.249 OA
BRANCH  16  18
ATOM     18  OXT TRP A   1       5.439   9.417  28.208  0.00  0.00    -0.479 OA
ATOM     19  HXT TRP A   1       6.227   9.407  28.846  0.00  0.00    +0.295 HD
ENDBRANCH  16  18
ENDBRANCH  12  16
ENDBRANCH  11  12
ENDBRANCH   1  11
TORSDOF 5
ENDMDL
MODEL 6
REMARK VINA RESULT:      -5.2     33.565     35.062
REMARK  Name = peptide_39_VVGEKSAIWK
REMARK  5 active torsions:
REMARK  status: ('A' for Active; 'I' for Inactive)
REMARK    1  A    between atoms: N_1  and  CA_2
REMARK    2  A    between atoms: CA_2  and  CB_3
REMARK    3  A    between atoms: CA_2  and  C_13
REMARK    4  A    between atoms: CB_3  and  CG_4
REMARK    5  A    between atoms: C_13  and  OXT_15
REMARK                            x       y       z     vdW  Elec       q    Type
REMARK                         _______ _______ _______ _____ _____    ______ ____
ROOT
ATOM      1  CG  TRP A   1      11.964  -5.091  42.501  0.00  0.00    -0.020 A 
ATOM      2  CD1 TRP A   1      12.579  -6.143  43.173  0.00  0.00    +0.087 A 
ATOM      3  NE1 TRP A   1      13.899  -6.183  42.880  0.00  0.00    -0.360 N 
ATOM      4  CE2 TRP A   1      14.119  -5.173  42.020  0.00  0.00    +0.047 A 
ATOM      5  CZ2 TRP A   1      15.327  -4.823  41.419  0.00  0.00    +0.026 A 
ATOM      6  CH2 TRP A   1      15.328  -3.734  40.528  0.00  0.00    +0.002 A 
ATOM      7  CZ3 TRP A   1      14.134  -3.030  40.259  0.00  0.00    +0.001 A 
ATOM      8  CE3 TRP A   1      12.929  -3.407  40.879  0.00  0.00    +0.010 A 
ATOM      9  CD2 TRP A   1      12.961  -4.486  41.761  0.00  0.00    +0.003 A 
ATOM     10  HE1 TRP A   1      14.598  -6.870  43.239  0.00  0.00    +0.165 HD
ENDROOT
BRANCH   1  11
ATOM     11  CB  TRP A   1      10.499  -4.759  42.507  0.00  0.00    +0.067 C 
BRANCH  11  12
ATOM     12  CA  TRP A   1       9.640  -5.986  42.874  0.00  0.00    +0.165 C 
BRANCH  12  13
ATOM     13  N   TRP A   1       8.706  -6.314  41.795  0.00  0.00    -0.318 NA
ATOM     14  H1  TRP A   1       8.861  -7.309  41.511  0.00  0.00    +0.119 HD
ATOM     15  H2  TRP A   1       8.913  -5.719  40.959  0.00  0.00    +0.119 HD
ENDBRANCH  12  13
BRANCH  12  16
ATOM     16  C   TRP A   1       8.878  -5.755  44.149  0.00  0.00    +0.322 C 
ATOM     17  O   TRP A   1       8.560  -6.726  44.887  0.00  0.00    -0.249 OA
BRANCH  16  18
ATOM     18  OXT TRP A   1       8.494  -4.464  44.501  0.00  0.00    -0.479 OA
ATOM     19  HXT TRP A   1       7.630  -4.298  45.003  0.00  0.00    +0.295 HD
ENDBRANCH  16  18
ENDBRANCH  12  16
ENDBRANCH  11  12
ENDBRANCH   1  11
TORSDOF 5
ENDMDL
MODEL 7
REMARK VINA RESULT:      -5.1      1.870      2.444
REMARK  Name = peptide_39_VVGEKSAIWK
REMARK  5 active torsions:
REMARK  status: ('A' for Active; 'I' for Inactive)
REMARK    1  A    between atoms: N_1  and  CA_2
REMARK    2  A    between atoms: CA_2  and  CB_3
REMARK    3  A    between atoms: CA_2  and  C_13
REMARK    4  A    between atoms: CB_3  and  CG_4
REMARK    5  A    between atoms: C_13  and  OXT_15
REMARK                            x       y       z     vdW  Elec       q    Type
REMARK                         _______ _______ _______ _____ _____    ______ ____
ROOT
ATOM      1  CG  TRP A   1      20.223   5.857   9.411  0.00  0.00    -0.020 A 
ATOM      2  CD1 TRP A   1      20.270   4.516   9.042  0.00  0.00    +0.087 A 
ATOM      3  NE1 TRP A   1      21.545   4.141   8.789  0.00  0.00    -0.360 N 
ATOM      4  CE2 TRP A   1      22.300   5.237   8.983  0.00  0.00    +0.047 A 
ATOM      5  CZ2 TRP A   1      23.680   5.351   8.825  0.00  0.00    +0.026 A 
ATOM      6  CH2 TRP A   1      24.269   6.607   9.064  0.00  0.00    +0.002 A 
ATOM      7  CZ3 TRP A   1      23.472   7.708   9.448  0.00  0.00    +0.001 A 
ATOM      8  CE3 TRP A   1      22.081   7.564   9.597  0.00  0.00    +0.010 A 
ATOM      9  CD2 TRP A   1      21.528   6.306   9.359  0.00  0.00    +0.003 A 
ATOM     10  HE1 TRP A   1      21.871   3.196   8.489  0.00  0.00    +0.165 HD
ENDROOT
BRANCH   1  11
ATOM     11  CB  TRP A   1      18.988   6.664   9.700  0.00  0.00    +0.067 C 
BRANCH  11  12
ATOM     12  CA  TRP A   1      17.868   6.370   8.683  0.00  0.00    +0.165 C 
BRANCH  12  13
ATOM     13  N   TRP A   1      17.163   7.598   8.310  0.00  0.00    -0.318 NA
ATOM     14  H1  TRP A   1      17.266   8.290   9.088  0.00  0.00    +0.119 HD
ATOM     15  H2  TRP A   1      16.140   7.397   8.208  0.00  0.00    +0.119 HD
ENDBRANCH  12  13
BRANCH  12  16
ATOM     16  C   TRP A   1      16.886   5.369   9.228  0.00  0.00    +0.322 C 
ATOM     17  O   TRP A   1      16.874   4.186   8.794  0.00  0.00    -0.249 OA
BRANCH  16  18
ATOM     18  OXT TRP A   1      15.965   5.761  10.195  0.00  0.00    -0.479 OA
ATOM     19  HXT TRP A   1      15.990   6.695  10.588  0.00  0.00    +0.295 HD
ENDBRANCH  16  18
ENDBRANCH  12  16
ENDBRANCH  11  12
ENDBRANCH   1  11
TORSDOF 5
ENDMDL
MODEL 8
REMARK VINA RESULT:      -4.8     14.263     15.799
REMARK  Name = peptide_39_VVGEKSAIWK
REMARK  5 active torsions:
REMARK  status: ('A' for Active; 'I' for Inactive)
REMARK    1  A    between atoms: N_1  and  CA_2
REMARK    2  A    between atoms: CA_2  and  CB_3
REMARK    3  A    between atoms: CA_2  and  C_13
REMARK    4  A    between atoms: CB_3  and  CG_4
REMARK    5  A    between atoms: C_13  and  OXT_15
REMARK                            x       y       z     vdW  Elec       q    Type
REMARK                         _______ _______ _______ _____ _____    ______ ____
ROOT
ATOM      1  CG  TRP A   1       5.802  -1.951  11.940  0.00  0.00    -0.020 A 
ATOM      2  CD1 TRP A   1       6.977  -2.044  11.200  0.00  0.00    +0.087 A 
ATOM      3  NE1 TRP A   1       6.697  -2.141   9.880  0.00  0.00    -0.360 N 
ATOM      4  CE2 TRP A   1       5.356  -2.121   9.783  0.00  0.00    +0.047 A 
ATOM      5  CZ2 TRP A   1       4.591  -2.214   8.621  0.00  0.00    +0.026 A 
ATOM      6  CH2 TRP A   1       3.190  -2.192   8.751  0.00  0.00    +0.002 A 
ATOM      7  CZ3 TRP A   1       2.592  -2.083  10.026  0.00  0.00    +0.001 A 
ATOM      8  CE3 TRP A   1       3.389  -1.992  11.182  0.00  0.00    +0.010 A 
ATOM      9  CD2 TRP A   1       4.774  -2.011  11.020  0.00  0.00    +0.003 A 
ATOM     10  HE1 TRP A   1       7.384  -2.228   9.099  0.00  0.00    +0.165 HD
ENDROOT
BRANCH   1  11
ATOM     11  CB  TRP A   1       5.689  -1.902  13.438  0.00  0.00    +0.067 C 
BRANCH  11  12
ATOM     12  CA  TRP A   1       7.076  -1.880  14.111  0.00  0.00    +0.165 C 
BRANCH  12  13
ATOM     13  N   TRP A   1       7.373  -3.168  14.740  0.00  0.00    -0.318 NA
ATOM     14  H1  TRP A   1       6.479  -3.702  14.847  0.00  0.00    +0.119 HD
ATOM     15  H2  TRP A   1       7.755  -3.009  15.702  0.00  0.00    +0.119 HD
ENDBRANCH  12  13
BRANCH  12  16
ATOM     16  C   TRP A   1       7.166  -0.784  15.137  0.00  0.00    +0.322 C 
ATOM     17  O   TRP A   1       7.694  -1.004  16.260  0.00  0.00    -0.249 OA
BRANCH  16  18
ATOM     18  OXT TRP A   1       6.635   0.471  14.855  0.00  0.00    -0.479 OA
ATOM     19  HXT TRP A   1       6.535   0.790  13.898  0.00  0.00    +0.295 HD
ENDBRANCH  16  18
ENDBRANCH  12  16
ENDBRANCH  11  12
ENDBRANCH   1  11
TORSDOF 5
ENDMDL
MODEL 9
REMARK VINA RESULT:      -4.8      4.765      6.906
REMARK  Name = peptide_39_VVGEKSAIWK
REMARK  5 active torsions:
REMARK  status: ('A' for Active; 'I' for Inactive)
REMARK    1  A    between atoms: N_1  and  CA_2
REMARK    2  A    between atoms: CA_2  and  CB_3
REMARK    3  A    between atoms: CA_2  and  C_13
REMARK    4  A    between atoms: CB_3  and  CG_4
REMARK    5  A    between atoms: C_13  and  OXT_15
REMARK                            x       y       z     vdW  Elec       q    Type
REMARK                         _______ _______ _______ _____ _____    ______ ____
ROOT
ATOM      1  CG  TRP A   1      23.218   7.092   9.311  0.00  0.00    -0.020 A 
ATOM      2  CD1 TRP A   1      22.426   8.232   9.407  0.00  0.00    +0.087 A 
ATOM      3  NE1 TRP A   1      21.115   7.897   9.419  0.00  0.00    -0.360 N 
ATOM      4  CE2 TRP A   1      21.074   6.556   9.320  0.00  0.00    +0.047 A 
ATOM      5  CZ2 TRP A   1      19.940   5.747   9.273  0.00  0.00    +0.026 A 
ATOM      6  CH2 TRP A   1      20.127   4.358   9.146  0.00  0.00    +0.002 A 
ATOM      7  CZ3 TRP A   1      21.430   3.817   9.068  0.00  0.00    +0.001 A 
ATOM      8  CE3 TRP A   1      22.556   4.658   9.116  0.00  0.00    +0.010 A 
ATOM      9  CD2 TRP A   1      22.338   6.029   9.247  0.00  0.00    +0.003 A 
ATOM     10  HE1 TRP A   1      20.303   8.550   9.478  0.00  0.00    +0.165 HD
ENDROOT
BRANCH   1  11
ATOM     11  CB  TRP A   1      24.715   7.048   9.196  0.00  0.00    +0.067 C 
BRANCH  11  12
ATOM     12  CA  TRP A   1      25.313   8.461   9.041  0.00  0.00    +0.165 C 
BRANCH  12  13
ATOM     13  N   TRP A   1      25.972   8.613   7.742  0.00  0.00    -0.318 NA
ATOM     14  H1  TRP A   1      25.240   8.798   7.018  0.00  0.00    +0.119 HD
ATOM     15  H2  TRP A   1      26.443   7.715   7.482  0.00  0.00    +0.119 HD
ENDBRANCH  12  13
BRANCH  12  16
ATOM     16  C   TRP A   1      26.293   8.762  10.142  0.00  0.00    +0.322 C 
ATOM     17  O   TRP A   1      26.020   9.622  11.022  0.00  0.00    -0.249 OA
BRANCH  16  18
ATOM     18  OXT TRP A   1      27.521   8.107  10.171  0.00  0.00    -0.479 OA
ATOM     19  HXT TRP A   1      27.586   7.137  10.456  0.00  0.00    +0.295 HD
ENDBRANCH  16  18
ENDBRANCH  12  16
ENDBRANCH  11  12
ENDBRANCH   1  11
TORSDOF 5
ENDMDL
