MODEL 1
REMARK VINA RESULT:      -4.2      0.000      0.000
REMARK  Name = peptide_32_VMRIPGERSG
REMARK  7 active torsions:
REMARK  status: ('A' for Active; 'I' for Inactive)
REMARK    1  A    between atoms: N_1  and  CA_2
REMARK    2  A    between atoms: CA_2  and  CB_3
REMARK    3  A    between atoms: CA_2  and  C_7
REMARK    4  A    between atoms: CB_3  and  CG2_4
REMARK    5  A    between atoms: CB_3  and  CG1_5
REMARK    6  A    between atoms: CG1_5  and  CD1_6
REMARK    7  A    between atoms: C_7  and  OXT_9
REMARK                            x       y       z     vdW  Elec       q    Type
REMARK                         _______ _______ _______ _____ _____    ______ ____
ROOT
ATOM      1  CA  ILE A   1      20.732   4.404   8.628  0.00  0.00    +0.164 C 
ENDROOT
BRANCH   1   2
ATOM      2  N   ILE A   1      21.065   3.019   8.976  0.00  0.00    -0.318 NA
ATOM      3  H1  ILE A   1      21.742   2.645   8.270  0.00  0.00    +0.119 HD
ATOM      4  H2  ILE A   1      20.209   2.433   8.859  0.00  0.00    +0.119 HD
ENDBRANCH   1   2
BRANCH   1   5
ATOM      5  CB  ILE A   1      19.598   4.960   9.545  0.00  0.00    +0.013 C 
ATOM      6  CG2 ILE A   1      19.400   6.470   9.302  0.00  0.00    +0.009 C 
BRANCH   5   7
ATOM      7  CG1 ILE A   1      18.244   4.224   9.332  0.00  0.00    +0.002 C 
ATOM      8  CD1 ILE A   1      17.048   5.179   9.336  0.00  0.00    +0.004 C 
ENDBRANCH   5   7
ENDBRANCH   1   5
BRANCH   1   9
ATOM      9  C   ILE A   1      21.973   5.252   8.749  0.00  0.00    +0.322 C 
ATOM     10  O   ILE A   1      22.585   5.324   9.848  0.00  0.00    -0.249 OA
BRANCH   9  11
ATOM     11  OXT ILE A   1      22.446   5.954   7.643  0.00  0.00    -0.479 OA
ATOM     12  HXT ILE A   1      23.417   6.238   7.586  0.00  0.00    +0.295 HD
ENDBRANCH   9  11
ENDBRANCH   1   9
TORSDOF 5
ENDMDL
MODEL 2
REMARK VINA RESULT:      -4.2      2.667      3.900
REMARK  Name = peptide_32_VMRIPGERSG
REMARK  7 active torsions:
REMARK  status: ('A' for Active; 'I' for Inactive)
REMARK    1  A    between atoms: N_1  and  CA_2
REMARK    2  A    between atoms: CA_2  and  CB_3
REMARK    3  A    between atoms: CA_2  and  C_7
REMARK    4  A    between atoms: CB_3  and  CG2_4
REMARK    5  A    between atoms: CB_3  and  CG1_5
REMARK    6  A    between atoms: CG1_5  and  CD1_6
REMARK    7  A    between atoms: C_7  and  OXT_9
REMARK                            x       y       z     vdW  Elec       q    Type
REMARK                         _______ _______ _______ _____ _____    ______ ____
ROOT
ATOM      1  CA  ILE A   1      19.178   4.379   9.686  0.00  0.00    +0.164 C 
ENDROOT
BRANCH   1   2
ATOM      2  N   ILE A   1      18.761   3.067   9.182  0.00  0.00    -0.318 NA
ATOM      3  H1  ILE A   1      18.597   2.427   9.995  0.00  0.00    +0.119 HD
ATOM      4  H2  ILE A   1      19.564   2.639   8.668  0.00  0.00    +0.119 HD
ENDBRANCH   1   2
BRANCH   1   5
ATOM      5  CB  ILE A   1      20.371   4.950   8.858  0.00  0.00    +0.013 C 
ATOM      6  CG2 ILE A   1      20.626   6.425   9.227  0.00  0.00    +0.009 C 
BRANCH   5   7
ATOM      7  CG1 ILE A   1      21.681   4.136   9.061  0.00  0.00    +0.002 C 
ATOM      8  CD1 ILE A   1      22.923   5.028   9.128  0.00  0.00    +0.004 C 
ENDBRANCH   5   7
ENDBRANCH   1   5
BRANCH   1   9
ATOM      9  C   ILE A   1      18.001   5.319   9.634  0.00  0.00    +0.322 C 
ATOM     10  O   ILE A   1      17.420   5.546   8.539  0.00  0.00    -0.249 OA
BRANCH   9  11
ATOM     11  OXT ILE A   1      17.550   5.936  10.799  0.00  0.00    -0.479 OA
ATOM     12  HXT ILE A   1      16.562   5.974  11.017  0.00  0.00    +0.295 HD
ENDBRANCH   9  11
ENDBRANCH   1   9
TORSDOF 5
ENDMDL
MODEL 3
REMARK VINA RESULT:      -3.9     19.571     20.611
REMARK  Name = peptide_32_VMRIPGERSG
REMARK  7 active torsions:
REMARK  status: ('A' for Active; 'I' for Inactive)
REMARK    1  A    between atoms: N_1  and  CA_2
REMARK    2  A    between atoms: CA_2  and  CB_3
REMARK    3  A    between atoms: CA_2  and  C_7
REMARK    4  A    between atoms: CB_3  and  CG2_4
REMARK    5  A    between atoms: CB_3  and  CG1_5
REMARK    6  A    between atoms: CG1_5  and  CD1_6
REMARK    7  A    between atoms: C_7  and  OXT_9
REMARK                            x       y       z     vdW  Elec       q    Type
REMARK                         _______ _______ _______ _____ _____    ______ ____
ROOT
ATOM      1  CA  ILE A   1       9.096   6.099  26.182  0.00  0.00    +0.164 C 
ENDROOT
BRANCH   1   2
ATOM      2  N   ILE A   1       9.635   5.344  25.046  0.00  0.00    -0.318 NA
ATOM      3  H1  ILE A   1      10.522   4.872  25.342  0.00  0.00    +0.119 HD
ATOM      4  H2  ILE A   1       9.931   6.022  24.308  0.00  0.00    +0.119 HD
ENDBRANCH   1   2
BRANCH   1   5
ATOM      5  CB  ILE A   1       9.654   7.556  26.208  0.00  0.00    +0.013 C 
ATOM      6  CG2 ILE A   1      10.680   7.720  27.347  0.00  0.00    +0.009 C 
BRANCH   5   7
ATOM      7  CG1 ILE A   1      10.312   7.967  24.859  0.00  0.00    +0.002 C 
ATOM      8  CD1 ILE A   1       9.449   8.942  24.056  0.00  0.00    +0.004 C 
ENDBRANCH   5   7
ENDBRANCH   1   5
BRANCH   1   9
ATOM      9  C   ILE A   1       7.591   6.110  26.091  0.00  0.00    +0.322 C 
ATOM     10  O   ILE A   1       6.894   5.854  27.109  0.00  0.00    -0.249 OA
BRANCH   9  11
ATOM     11  OXT ILE A   1       6.968   6.408  24.882  0.00  0.00    -0.479 OA
ATOM     12  HXT ILE A   1       6.663   7.351  24.674  0.00  0.00    +0.295 HD
ENDBRANCH   9  11
ENDBRANCH   1   9
TORSDOF 5
ENDMDL
MODEL 4
REMARK VINA RESULT:      -3.9     20.440     21.470
REMARK  Name = peptide_32_VMRIPGERSG
REMARK  7 active torsions:
REMARK  status: ('A' for Active; 'I' for Inactive)
REMARK    1  A    between atoms: N_1  and  CA_2
REMARK    2  A    between atoms: CA_2  and  CB_3
REMARK    3  A    between atoms: CA_2  and  C_7
REMARK    4  A    between atoms: CB_3  and  CG2_4
REMARK    5  A    between atoms: CB_3  and  CG1_5
REMARK    6  A    between atoms: CG1_5  and  CD1_6
REMARK    7  A    between atoms: C_7  and  OXT_9
REMARK                            x       y       z     vdW  Elec       q    Type
REMARK                         _______ _______ _______ _____ _____    ______ ____
ROOT
ATOM      1  CA  ILE A   1       7.189   7.495  25.928  0.00  0.00    +0.164 C 
ENDROOT
BRANCH   1   2
ATOM      2  N   ILE A   1       6.084   7.498  26.892  0.00  0.00    -0.318 NA
ATOM      3  H1  ILE A   1       5.193   7.719  26.386  0.00  0.00    +0.119 HD
ATOM      4  H2  ILE A   1       6.220   8.298  27.549  0.00  0.00    +0.119 HD
ENDBRANCH   1   2
BRANCH   1   5
ATOM      5  CB  ILE A   1       7.790   6.064  25.761  0.00  0.00    +0.013 C 
ATOM      6  CG2 ILE A   1       9.324   6.135  25.635  0.00  0.00    +0.009 C 
BRANCH   5   7
ATOM      7  CG1 ILE A   1       7.414   5.119  26.939  0.00  0.00    +0.002 C 
ATOM      8  CD1 ILE A   1       8.633   4.412  27.536  0.00  0.00    +0.004 C 
ENDBRANCH   5   7
ENDBRANCH   1   5
BRANCH   1   9
ATOM      9  C   ILE A   1       6.686   8.015  24.605  0.00  0.00    +0.322 C 
ATOM     10  O   ILE A   1       5.473   7.879  24.292  0.00  0.00    -0.249 OA
BRANCH   9  11
ATOM     11  OXT ILE A   1       7.562   8.650  23.728  0.00  0.00    -0.479 OA
ATOM     12  HXT ILE A   1       8.508   8.308  23.601  0.00  0.00    +0.295 HD
ENDBRANCH   9  11
ENDBRANCH   1   9
TORSDOF 5
ENDMDL
MODEL 5
REMARK VINA RESULT:      -3.9     20.055     21.187
REMARK  Name = peptide_32_VMRIPGERSG
REMARK  7 active torsions:
REMARK  status: ('A' for Active; 'I' for Inactive)
REMARK    1  A    between atoms: N_1  and  CA_2
REMARK    2  A    between atoms: CA_2  and  CB_3
REMARK    3  A    between atoms: CA_2  and  C_7
REMARK    4  A    between atoms: CB_3  and  CG2_4
REMARK    5  A    between atoms: CB_3  and  CG1_5
REMARK    6  A    between atoms: CG1_5  and  CD1_6
REMARK    7  A    between atoms: C_7  and  OXT_9
REMARK                            x       y       z     vdW  Elec       q    Type
REMARK                         _______ _______ _______ _____ _____    ______ ____
ROOT
ATOM      1  CA  ILE A   1       8.060   5.771  26.299  0.00  0.00    +0.164 C 
ENDROOT
BRANCH   1   2
ATOM      2  N   ILE A   1       6.786   6.259  26.838  0.00  0.00    -0.318 NA
ATOM      3  H1  ILE A   1       6.918   7.238  27.187  0.00  0.00    +0.119 HD
ATOM      4  H2  ILE A   1       6.552   5.703  27.691  0.00  0.00    +0.119 HD
ENDBRANCH   1   2
BRANCH   1   5
ATOM      5  CB  ILE A   1       9.089   6.933  26.141  0.00  0.00    +0.013 C 
ATOM      6  CG2 ILE A   1      10.069   6.632  24.989  0.00  0.00    +0.009 C 
BRANCH   5   7
ATOM      7  CG1 ILE A   1       8.403   8.306  25.887  0.00  0.00    +0.002 C 
ATOM      8  CD1 ILE A   1       8.648   8.832  24.470  0.00  0.00    +0.004 C 
ENDBRANCH   5   7
ENDBRANCH   1   5
BRANCH   1   9
ATOM      9  C   ILE A   1       8.602   4.705  27.217  0.00  0.00    +0.322 C 
ATOM     10  O   ILE A   1       8.370   4.757  28.455  0.00  0.00    -0.249 OA
BRANCH   9  11
ATOM     11  OXT ILE A   1       9.359   3.658  26.697  0.00  0.00    -0.479 OA
ATOM     12  HXT ILE A   1       8.920   2.786  26.424  0.00  0.00    +0.295 HD
ENDBRANCH   9  11
ENDBRANCH   1   9
TORSDOF 5
ENDMDL
MODEL 6
REMARK VINA RESULT:      -3.8      3.419      4.007
REMARK  Name = peptide_32_VMRIPGERSG
REMARK  7 active torsions:
REMARK  status: ('A' for Active; 'I' for Inactive)
REMARK    1  A    between atoms: N_1  and  CA_2
REMARK    2  A    between atoms: CA_2  and  CB_3
REMARK    3  A    between atoms: CA_2  and  C_7
REMARK    4  A    between atoms: CB_3  and  CG2_4
REMARK    5  A    between atoms: CB_3  and  CG1_5
REMARK    6  A    between atoms: CG1_5  and  CD1_6
REMARK    7  A    between atoms: C_7  and  OXT_9
REMARK                            x       y       z     vdW  Elec       q    Type
REMARK                         _______ _______ _______ _____ _____    ______ ____
ROOT
ATOM      1  CA  ILE A   1      18.177   6.062   9.128  0.00  0.00    +0.164 C 
ENDROOT
BRANCH   1   2
ATOM      2  N   ILE A   1      17.108   6.538   8.244  0.00  0.00    -0.318 NA
ATOM      3  H1  ILE A   1      16.681   7.399   8.659  0.00  0.00    +0.119 HD
ATOM      4  H2  ILE A   1      16.336   5.833   8.248  0.00  0.00    +0.119 HD
ENDBRANCH   1   2
BRANCH   1   5
ATOM      5  CB  ILE A   1      18.081   6.726  10.538  0.00  0.00    +0.013 C 
ATOM      6  CG2 ILE A   1      18.323   8.245  10.436  0.00  0.00    +0.009 C 
BRANCH   5   7
ATOM      7  CG1 ILE A   1      16.709   6.470  11.225  0.00  0.00    +0.002 C 
ATOM      8  CD1 ILE A   1      15.981   7.767  11.587  0.00  0.00    +0.004 C 
ENDBRANCH   5   7
ENDBRANCH   1   5
BRANCH   1   9
ATOM      9  C   ILE A   1      18.086   4.562   9.244  0.00  0.00    +0.322 C 
ATOM     10  O   ILE A   1      17.211   3.929   8.593  0.00  0.00    -0.249 OA
BRANCH   9  11
ATOM     11  OXT ILE A   1      18.971   3.872  10.067  0.00  0.00    -0.479 OA
ATOM     12  HXT ILE A   1      18.765   2.929  10.377  0.00  0.00    +0.295 HD
ENDBRANCH   9  11
ENDBRANCH   1   9
TORSDOF 5
ENDMDL
MODEL 7
REMARK VINA RESULT:      -3.8      1.750      2.370
REMARK  Name = peptide_32_VMRIPGERSG
REMARK  7 active torsions:
REMARK  status: ('A' for Active; 'I' for Inactive)
REMARK    1  A    between atoms: N_1  and  CA_2
REMARK    2  A    between atoms: CA_2  and  CB_3
REMARK    3  A    between atoms: CA_2  and  C_7
REMARK    4  A    between atoms: CB_3  and  CG2_4
REMARK    5  A    between atoms: CB_3  and  CG1_5
REMARK    6  A    between atoms: CG1_5  and  CD1_6
REMARK    7  A    between atoms: C_7  and  OXT_9
REMARK                            x       y       z     vdW  Elec       q    Type
REMARK                         _______ _______ _______ _____ _____    ______ ____
ROOT
ATOM      1  CA  ILE A   1      19.954   5.263   9.471  0.00  0.00    +0.164 C 
ENDROOT
BRANCH   1   2
ATOM      2  N   ILE A   1      20.360   6.672   9.521  0.00  0.00    -0.318 NA
ATOM      3  H1  ILE A   1      20.328   7.069   8.552  0.00  0.00    +0.119 HD
ATOM      4  H2  ILE A   1      21.368   6.716   9.791  0.00  0.00    +0.119 HD
ENDBRANCH   1   2
BRANCH   1   5
ATOM      5  CB  ILE A   1      18.575   5.098   8.759  0.00  0.00    +0.013 C 
ATOM      6  CG2 ILE A   1      17.940   3.740   9.123  0.00  0.00    +0.009 C 
BRANCH   5   7
ATOM      7  CG1 ILE A   1      17.580   6.241   9.113  0.00  0.00    +0.002 C 
ATOM      8  CD1 ILE A   1      16.255   5.716   9.669  0.00  0.00    +0.004 C 
ENDBRANCH   5   7
ENDBRANCH   1   5
BRANCH   1   9
ATOM      9  C   ILE A   1      21.017   4.472   8.753  0.00  0.00    +0.322 C 
ATOM     10  O   ILE A   1      21.788   5.044   7.937  0.00  0.00    -0.249 OA
BRANCH   9  11
ATOM     11  OXT ILE A   1      21.152   3.107   8.995  0.00  0.00    -0.479 OA
ATOM     12  HXT ILE A   1      21.900   2.576   8.566  0.00  0.00    +0.295 HD
ENDBRANCH   9  11
ENDBRANCH   1   9
TORSDOF 5
ENDMDL
MODEL 8
REMARK VINA RESULT:      -3.8     21.298     21.939
REMARK  Name = peptide_32_VMRIPGERSG
REMARK  7 active torsions:
REMARK  status: ('A' for Active; 'I' for Inactive)
REMARK    1  A    between atoms: N_1  and  CA_2
REMARK    2  A    between atoms: CA_2  and  CB_3
REMARK    3  A    between atoms: CA_2  and  C_7
REMARK    4  A    between atoms: CB_3  and  CG2_4
REMARK    5  A    between atoms: CB_3  and  CG1_5
REMARK    6  A    between atoms: CG1_5  and  CD1_6
REMARK    7  A    between atoms: C_7  and  OXT_9
REMARK                            x       y       z     vdW  Elec       q    Type
REMARK                         _______ _______ _______ _____ _____    ______ ____
ROOT
ATOM      1  CA  ILE A   1      15.836   3.716  30.659  0.00  0.00    +0.164 C 
ENDROOT
BRANCH   1   2
ATOM      2  N   ILE A   1      17.029   4.529  30.398  0.00  0.00    -0.318 NA
ATOM      3  H1  ILE A   1      16.728   5.487  30.099  0.00  0.00    +0.119 HD
ATOM      4  H2  ILE A   1      17.523   4.136  29.566  0.00  0.00    +0.119 HD
ENDBRANCH   1   2
BRANCH   1   5
ATOM      5  CB  ILE A   1      14.579   4.613  30.880  0.00  0.00    +0.013 C 
ATOM      6  CG2 ILE A   1      14.612   5.251  32.284  0.00  0.00    +0.009 C 
BRANCH   5   7
ATOM      7  CG1 ILE A   1      14.450   5.735  29.809  0.00  0.00    +0.002 C 
ATOM      8  CD1 ILE A   1      13.269   6.671  30.078  0.00  0.00    +0.004 C 
ENDBRANCH   5   7
ENDBRANCH   1   5
BRANCH   1   9
ATOM      9  C   ILE A   1      15.619   2.779  29.498  0.00  0.00    +0.322 C 
ATOM     10  O   ILE A   1      16.040   3.086  28.350  0.00  0.00    -0.249 OA
BRANCH   9  11
ATOM     11  OXT ILE A   1      14.957   1.570  29.693  0.00  0.00    -0.479 OA
ATOM     12  HXT ILE A   1      14.510   1.093  28.919  0.00  0.00    +0.295 HD
ENDBRANCH   9  11
ENDBRANCH   1   9
TORSDOF 5
ENDMDL
MODEL 9
REMARK VINA RESULT:      -3.7     18.426     19.043
REMARK  Name = peptide_32_VMRIPGERSG
REMARK  7 active torsions:
REMARK  status: ('A' for Active; 'I' for Inactive)
REMARK    1  A    between atoms: N_1  and  CA_2
REMARK    2  A    between atoms: CA_2  and  CB_3
REMARK    3  A    between atoms: CA_2  and  C_7
REMARK    4  A    between atoms: CB_3  and  CG2_4
REMARK    5  A    between atoms: CB_3  and  CG1_5
REMARK    6  A    between atoms: CG1_5  and  CD1_6
REMARK    7  A    between atoms: C_7  and  OXT_9
REMARK                            x       y       z     vdW  Elec       q    Type
REMARK                         _______ _______ _______ _____ _____    ______ ____
ROOT
ATOM      1  CA  ILE A   1      23.432   8.663  26.656  0.00  0.00    +0.164 C 
ENDROOT
BRANCH   1   2
ATOM      2  N   ILE A   1      23.697   9.446  25.445  0.00  0.00    -0.318 NA
ATOM      3  H1  ILE A   1      24.396  10.193  25.669  0.00  0.00    +0.119 HD
ATOM      4  H2  ILE A   1      22.827   9.967  25.190  0.00  0.00    +0.119 HD
ENDBRANCH   1   2
BRANCH   1   5
ATOM      5  CB  ILE A   1      23.068   9.589  27.859  0.00  0.00    +0.013 C 
ATOM      6  CG2 ILE A   1      23.948   9.256  29.081  0.00  0.00    +0.009 C 
BRANCH   5   7
ATOM      7  CG1 ILE A   1      23.216  11.099  27.516  0.00  0.00    +0.002 C 
ATOM      8  CD1 ILE A   1      24.426  11.741  28.198  0.00  0.00    +0.004 C 
ENDBRANCH   5   7
ENDBRANCH   1   5
BRANCH   1   9
ATOM      9  C   ILE A   1      22.312   7.694  26.377  0.00  0.00    +0.322 C 
ATOM     10  O   ILE A   1      21.543   7.880  25.396  0.00  0.00    -0.249 OA
BRANCH   9  11
ATOM     11  OXT ILE A   1      22.126   6.588  27.203  0.00  0.00    -0.479 OA
ATOM     12  HXT ILE A   1      22.612   5.717  27.021  0.00  0.00    +0.295 HD
ENDBRANCH   9  11
ENDBRANCH   1   9
TORSDOF 5
ENDMDL
