MODEL 1
REMARK VINA RESULT:      -4.3      0.000      0.000
REMARK  Name = peptide_27_TLVKTTIQSH
REMARK  7 active torsions:
REMARK  status: ('A' for Active; 'I' for Inactive)
REMARK    1  A    between atoms: N_1  and  CA_2
REMARK    2  A    between atoms: CA_2  and  CB_3
REMARK    3  A    between atoms: CA_2  and  C_7
REMARK    4  A    between atoms: CB_3  and  CG_4
REMARK    5  A    between atoms: CG_4  and  CD1_5
REMARK    6  A    between atoms: CG_4  and  CD2_6
REMARK    7  A    between atoms: C_7  and  OXT_9
REMARK                            x       y       z     vdW  Elec       q    Type
REMARK                         _______ _______ _______ _____ _____    ______ ____
ROOT
ATOM      1  CA  LEU A   1      10.092  -4.987  42.572  0.00  0.00    +0.161 C 
ENDROOT
BRANCH   1   2
ATOM      2  N   LEU A   1       9.472  -3.668  42.422  0.00  0.00    -0.318 NA
ATOM      3  H1  LEU A   1       8.763  -3.544  43.182  0.00  0.00    +0.119 HD
ATOM      4  H2  LEU A   1      10.196  -2.922  42.543  0.00  0.00    +0.119 HD
ENDBRANCH   1   2
BRANCH   1   5
ATOM      5  C   LEU A   1       9.582  -5.659  43.820  0.00  0.00    +0.322 C 
ATOM      6  O   LEU A   1       9.818  -6.881  44.018  0.00  0.00    -0.249 OA
BRANCH   5   7
ATOM      7  OXT LEU A   1       8.838  -4.936  44.749  0.00  0.00    -0.479 OA
ATOM      8  HXT LEU A   1       8.987  -5.061  45.743  0.00  0.00    +0.295 HD
ENDBRANCH   5   7
ENDBRANCH   1   5
BRANCH   1   9
ATOM      9  CB  LEU A   1      11.634  -4.864  42.618  0.00  0.00    +0.033 C 
BRANCH   9  10
ATOM     10  CG  LEU A   1      12.177  -3.556  41.993  0.00  0.00    -0.015 C 
ATOM     11  CD1 LEU A   1      12.542  -3.795  40.521  0.00  0.00    +0.007 C 
ATOM     12  CD2 LEU A   1      13.397  -3.007  42.748  0.00  0.00    +0.007 C 
ENDBRANCH   9  10
ENDBRANCH   1   9
TORSDOF 5
ENDMDL
MODEL 2
REMARK VINA RESULT:      -4.1     19.894     21.478
REMARK  Name = peptide_27_TLVKTTIQSH
REMARK  7 active torsions:
REMARK  status: ('A' for Active; 'I' for Inactive)
REMARK    1  A    between atoms: N_1  and  CA_2
REMARK    2  A    between atoms: CA_2  and  CB_3
REMARK    3  A    between atoms: CA_2  and  C_7
REMARK    4  A    between atoms: CB_3  and  CG_4
REMARK    5  A    between atoms: CG_4  and  CD1_5
REMARK    6  A    between atoms: CG_4  and  CD2_6
REMARK    7  A    between atoms: C_7  and  OXT_9
REMARK                            x       y       z     vdW  Elec       q    Type
REMARK                         _______ _______ _______ _____ _____    ______ ____
ROOT
ATOM      1  CA  LEU A   1      -8.911   0.749  48.129  0.00  0.00    +0.161 C 
ENDROOT
BRANCH   1   2
ATOM      2  N   LEU A   1      -9.337   1.703  47.102  0.00  0.00    -0.318 NA
ATOM      3  H1  LEU A   1     -10.299   1.443  46.783  0.00  0.00    +0.119 HD
ATOM      4  H2  LEU A   1      -9.391   2.663  47.514  0.00  0.00    +0.119 HD
ENDBRANCH   1   2
BRANCH   1   5
ATOM      5  C   LEU A   1      -7.414   0.800  48.293  0.00  0.00    +0.322 C 
ATOM      6  O   LEU A   1      -6.687  -0.048  47.708  0.00  0.00    -0.249 OA
BRANCH   5   7
ATOM      7  OXT LEU A   1      -6.832   1.774  49.099  0.00  0.00    -0.479 OA
ATOM      8  HXT LEU A   1      -6.305   1.517  49.926  0.00  0.00    +0.295 HD
ENDBRANCH   5   7
ENDBRANCH   1   5
BRANCH   1   9
ATOM      9  CB  LEU A   1      -9.363  -0.685  47.766  0.00  0.00    +0.033 C 
BRANCH   9  10
ATOM     10  CG  LEU A   1     -10.654  -1.137  48.493  0.00  0.00    -0.015 C 
ATOM     11  CD1 LEU A   1     -10.603  -2.648  48.754  0.00  0.00    +0.007 C 
ATOM     12  CD2 LEU A   1     -11.924  -0.789  47.702  0.00  0.00    +0.007 C 
ENDBRANCH   9  10
ENDBRANCH   1   9
TORSDOF 5
ENDMDL
MODEL 3
REMARK VINA RESULT:      -4.1     35.129     35.981
REMARK  Name = peptide_27_TLVKTTIQSH
REMARK  7 active torsions:
REMARK  status: ('A' for Active; 'I' for Inactive)
REMARK    1  A    between atoms: N_1  and  CA_2
REMARK    2  A    between atoms: CA_2  and  CB_3
REMARK    3  A    between atoms: CA_2  and  C_7
REMARK    4  A    between atoms: CB_3  and  CG_4
REMARK    5  A    between atoms: CG_4  and  CD1_5
REMARK    6  A    between atoms: CG_4  and  CD2_6
REMARK    7  A    between atoms: C_7  and  OXT_9
REMARK                            x       y       z     vdW  Elec       q    Type
REMARK                         _______ _______ _______ _____ _____    ______ ____
ROOT
ATOM      1  CA  LEU A   1      19.274   4.578   9.041  0.00  0.00    +0.161 C 
ENDROOT
BRANCH   1   2
ATOM      2  N   LEU A   1      18.781   3.629  10.042  0.00  0.00    -0.318 NA
ATOM      3  H1  LEU A   1      17.737   3.692  10.077  0.00  0.00    +0.119 HD
ATOM      4  H2  LEU A   1      19.027   2.654   9.753  0.00  0.00    +0.119 HD
ENDBRANCH   1   2
BRANCH   1   5
ATOM      5  C   LEU A   1      20.722   4.299   8.733  0.00  0.00    +0.322 C 
ATOM      6  O   LEU A   1      21.441   5.197   8.218  0.00  0.00    -0.249 OA
BRANCH   5   7
ATOM      7  OXT LEU A   1      21.265   3.045   9.003  0.00  0.00    -0.479 OA
ATOM      8  HXT LEU A   1      21.483   2.768   9.953  0.00  0.00    +0.295 HD
ENDBRANCH   5   7
ENDBRANCH   1   5
BRANCH   1   9
ATOM      9  CB  LEU A   1      19.101   6.034   9.535  0.00  0.00    +0.033 C 
BRANCH   9  10
ATOM     10  CG  LEU A   1      17.726   6.312  10.191  0.00  0.00    -0.015 C 
ATOM     11  CD1 LEU A   1      16.655   6.484   9.105  0.00  0.00    +0.007 C 
ATOM     12  CD2 LEU A   1      17.749   7.553  11.097  0.00  0.00    +0.007 C 
ENDBRANCH   9  10
ENDBRANCH   1   9
TORSDOF 5
ENDMDL
MODEL 4
REMARK VINA RESULT:      -4.1     35.845     36.637
REMARK  Name = peptide_27_TLVKTTIQSH
REMARK  7 active torsions:
REMARK  status: ('A' for Active; 'I' for Inactive)
REMARK    1  A    between atoms: N_1  and  CA_2
REMARK    2  A    between atoms: CA_2  and  CB_3
REMARK    3  A    between atoms: CA_2  and  C_7
REMARK    4  A    between atoms: CB_3  and  CG_4
REMARK    5  A    between atoms: CG_4  and  CD1_5
REMARK    6  A    between atoms: CG_4  and  CD2_6
REMARK    7  A    between atoms: C_7  and  OXT_9
REMARK                            x       y       z     vdW  Elec       q    Type
REMARK                         _______ _______ _______ _____ _____    ______ ____
ROOT
ATOM      1  CA  LEU A   1      20.849   4.464   8.643  0.00  0.00    +0.161 C 
ENDROOT
BRANCH   1   2
ATOM      2  N   LEU A   1      21.139   3.078   9.019  0.00  0.00    -0.318 NA
ATOM      3  H1  LEU A   1      22.094   2.830   8.671  0.00  0.00    +0.119 HD
ATOM      4  H2  LEU A   1      21.152   2.991  10.062  0.00  0.00    +0.119 HD
ENDBRANCH   1   2
BRANCH   1   5
ATOM      5  C   LEU A   1      22.122   5.269   8.620  0.00  0.00    +0.322 C 
ATOM      6  O   LEU A   1      22.508   5.807   7.547  0.00  0.00    -0.249 OA
BRANCH   5   7
ATOM      7  OXT LEU A   1      22.880   5.411   9.779  0.00  0.00    -0.479 OA
ATOM      8  HXT LEU A   1      22.490   5.849  10.605  0.00  0.00    +0.295 HD
ENDBRANCH   5   7
ENDBRANCH   1   5
BRANCH   1   9
ATOM      9  CB  LEU A   1      19.830   5.095   9.621  0.00  0.00    +0.033 C 
BRANCH   9  10
ATOM     10  CG  LEU A   1      18.406   5.244   9.031  0.00  0.00    -0.015 C 
ATOM     11  CD1 LEU A   1      17.594   6.235   9.876  0.00  0.00    +0.007 C 
ATOM     12  CD2 LEU A   1      17.663   3.903   8.946  0.00  0.00    +0.007 C 
ENDBRANCH   9  10
ENDBRANCH   1   9
TORSDOF 5
ENDMDL
MODEL 5
REMARK VINA RESULT:      -4.0      5.180      7.250
REMARK  Name = peptide_27_TLVKTTIQSH
REMARK  7 active torsions:
REMARK  status: ('A' for Active; 'I' for Inactive)
REMARK    1  A    between atoms: N_1  and  CA_2
REMARK    2  A    between atoms: CA_2  and  CB_3
REMARK    3  A    between atoms: CA_2  and  C_7
REMARK    4  A    between atoms: CB_3  and  CG_4
REMARK    5  A    between atoms: CG_4  and  CD1_5
REMARK    6  A    between atoms: CG_4  and  CD2_6
REMARK    7  A    between atoms: C_7  and  OXT_9
REMARK                            x       y       z     vdW  Elec       q    Type
REMARK                         _______ _______ _______ _____ _____    ______ ____
ROOT
ATOM      1  CA  LEU A   1       6.721  -6.358  46.623  0.00  0.00    +0.161 C 
ENDROOT
BRANCH   1   2
ATOM      2  N   LEU A   1       7.594  -6.744  47.734  0.00  0.00    -0.318 NA
ATOM      3  H1  LEU A   1       7.445  -6.075  48.525  0.00  0.00    +0.119 HD
ATOM      4  H2  LEU A   1       7.328  -7.697  48.075  0.00  0.00    +0.119 HD
ENDBRANCH   1   2
BRANCH   1   5
ATOM      5  C   LEU A   1       7.536  -6.162  45.371  0.00  0.00    +0.322 C 
ATOM      6  O   LEU A   1       7.376  -6.934  44.387  0.00  0.00    -0.249 OA
BRANCH   5   7
ATOM      7  OXT LEU A   1       8.478  -5.138  45.302  0.00  0.00    -0.479 OA
ATOM      8  HXT LEU A   1       8.683  -4.566  46.113  0.00  0.00    +0.295 HD
ENDBRANCH   5   7
ENDBRANCH   1   5
BRANCH   1   9
ATOM      9  CB  LEU A   1       5.940  -5.066  46.963  0.00  0.00    +0.033 C 
BRANCH   9  10
ATOM     10  CG  LEU A   1       4.915  -5.240  48.110  0.00  0.00    -0.015 C 
ATOM     11  CD1 LEU A   1       3.515  -4.842  47.623  0.00  0.00    +0.007 C 
ATOM     12  CD2 LEU A   1       5.284  -4.419  49.356  0.00  0.00    +0.007 C 
ENDBRANCH   9  10
ENDBRANCH   1   9
TORSDOF 5
ENDMDL
MODEL 6
REMARK VINA RESULT:      -4.0     18.903     20.034
REMARK  Name = peptide_27_TLVKTTIQSH
REMARK  7 active torsions:
REMARK  status: ('A' for Active; 'I' for Inactive)
REMARK    1  A    between atoms: N_1  and  CA_2
REMARK    2  A    between atoms: CA_2  and  CB_3
REMARK    3  A    between atoms: CA_2  and  C_7
REMARK    4  A    between atoms: CB_3  and  CG_4
REMARK    5  A    between atoms: CG_4  and  CD1_5
REMARK    6  A    between atoms: CG_4  and  CD2_6
REMARK    7  A    between atoms: C_7  and  OXT_9
REMARK                            x       y       z     vdW  Elec       q    Type
REMARK                         _______ _______ _______ _____ _____    ______ ____
ROOT
ATOM      1  CA  LEU A   1       9.423   5.338  26.490  0.00  0.00    +0.161 C 
ENDROOT
BRANCH   1   2
ATOM      2  N   LEU A   1       9.970   3.979  26.506  0.00  0.00    -0.318 NA
ATOM      3  H1  LEU A   1      11.013   4.038  26.446  0.00  0.00    +0.119 HD
ATOM      4  H2  LEU A   1       9.733   3.514  27.412  0.00  0.00    +0.119 HD
ENDBRANCH   1   2
BRANCH   1   5
ATOM      5  C   LEU A   1       7.934   5.297  26.716  0.00  0.00    +0.322 C 
ATOM      6  O   LEU A   1       7.473   4.833  27.794  0.00  0.00    -0.249 OA
BRANCH   5   7
ATOM      7  OXT LEU A   1       7.064   5.758  25.732  0.00  0.00    -0.479 OA
ATOM      8  HXT LEU A   1       6.986   6.748  25.529  0.00  0.00    +0.295 HD
ENDBRANCH   5   7
ENDBRANCH   1   5
BRANCH   1   9
ATOM      9  CB  LEU A   1       9.744   6.043  25.151  0.00  0.00    +0.033 C 
BRANCH   9  10
ATOM     10  CG  LEU A   1      10.185   7.519  25.312  0.00  0.00    -0.015 C 
ATOM     11  CD1 LEU A   1      10.471   7.819  26.789  0.00  0.00    +0.007 C 
ATOM     12  CD2 LEU A   1       9.137   8.505  24.775  0.00  0.00    +0.007 C 
ENDBRANCH   9  10
ENDBRANCH   1   9
TORSDOF 5
ENDMDL
MODEL 7
REMARK VINA RESULT:      -3.9     19.971     21.096
REMARK  Name = peptide_27_TLVKTTIQSH
REMARK  7 active torsions:
REMARK  status: ('A' for Active; 'I' for Inactive)
REMARK    1  A    between atoms: N_1  and  CA_2
REMARK    2  A    between atoms: CA_2  and  CB_3
REMARK    3  A    between atoms: CA_2  and  C_7
REMARK    4  A    between atoms: CB_3  and  CG_4
REMARK    5  A    between atoms: CG_4  and  CD1_5
REMARK    6  A    between atoms: CG_4  and  CD2_6
REMARK    7  A    between atoms: C_7  and  OXT_9
REMARK                            x       y       z     vdW  Elec       q    Type
REMARK                         _______ _______ _______ _____ _____    ______ ____
ROOT
ATOM      1  CA  LEU A   1       7.056   7.493  25.920  0.00  0.00    +0.161 C 
ENDROOT
BRANCH   1   2
ATOM      2  N   LEU A   1       6.007   7.588  26.939  0.00  0.00    -0.318 NA
ATOM      3  H1  LEU A   1       5.082   7.404  26.485  0.00  0.00    +0.119 HD
ATOM      4  H2  LEU A   1       6.154   6.849  27.665  0.00  0.00    +0.119 HD
ENDBRANCH   1   2
BRANCH   1   5
ATOM      5  C   LEU A   1       6.571   8.087  24.623  0.00  0.00    +0.322 C 
ATOM      6  O   LEU A   1       5.337   8.118  24.367  0.00  0.00    -0.249 OA
BRANCH   5   7
ATOM      7  OXT LEU A   1       7.484   8.590  23.700  0.00  0.00    -0.479 OA
ATOM      8  HXT LEU A   1       8.380   8.954  24.001  0.00  0.00    +0.295 HD
ENDBRANCH   5   7
ENDBRANCH   1   5
BRANCH   1   9
ATOM      9  CB  LEU A   1       7.484   6.021  25.710  0.00  0.00    +0.033 C 
BRANCH   9  10
ATOM     10  CG  LEU A   1       8.545   5.528  26.724  0.00  0.00    -0.015 C 
ATOM     11  CD1 LEU A   1       9.771   4.989  25.975  0.00  0.00    +0.007 C 
ATOM     12  CD2 LEU A   1       7.997   4.446  27.667  0.00  0.00    +0.007 C 
ENDBRANCH   9  10
ENDBRANCH   1   9
TORSDOF 5
ENDMDL
MODEL 8
REMARK VINA RESULT:      -3.9     35.971     36.562
REMARK  Name = peptide_27_TLVKTTIQSH
REMARK  7 active torsions:
REMARK  status: ('A' for Active; 'I' for Inactive)
REMARK    1  A    between atoms: N_1  and  CA_2
REMARK    2  A    between atoms: CA_2  and  CB_3
REMARK    3  A    between atoms: CA_2  and  C_7
REMARK    4  A    between atoms: CB_3  and  CG_4
REMARK    5  A    between atoms: CG_4  and  CD1_5
REMARK    6  A    between atoms: CG_4  and  CD2_6
REMARK    7  A    between atoms: C_7  and  OXT_9
REMARK                            x       y       z     vdW  Elec       q    Type
REMARK                         _______ _______ _______ _____ _____    ______ ____
ROOT
ATOM      1  CA  LEU A   1      20.521   4.413   9.368  0.00  0.00    +0.161 C 
ENDROOT
BRANCH   1   2
ATOM      2  N   LEU A   1      21.073   3.145   8.883  0.00  0.00    -0.318 NA
ATOM      3  H1  LEU A   1      21.411   3.281   7.902  0.00  0.00    +0.119 HD
ATOM      4  H2  LEU A   1      21.899   2.875   9.466  0.00  0.00    +0.119 HD
ENDBRANCH   1   2
BRANCH   1   5
ATOM      5  C   LEU A   1      19.054   4.498   9.035  0.00  0.00    +0.322 C 
ATOM      6  O   LEU A   1      18.506   5.624   8.885  0.00  0.00    -0.249 OA
BRANCH   5   7
ATOM      7  OXT LEU A   1      18.298   3.336   8.904  0.00  0.00    -0.479 OA
ATOM      8  HXT LEU A   1      17.286   3.376   8.874  0.00  0.00    +0.295 HD
ENDBRANCH   5   7
ENDBRANCH   1   5
BRANCH   1   9
ATOM      9  CB  LEU A   1      21.282   5.612   8.756  0.00  0.00    +0.033 C 
BRANCH   9  10
ATOM     10  CG  LEU A   1      22.576   5.988   9.520  0.00  0.00    -0.015 C 
ATOM     11  CD1 LEU A   1      22.581   7.492   9.825  0.00  0.00    +0.007 C 
ATOM     12  CD2 LEU A   1      23.846   5.611   8.743  0.00  0.00    +0.007 C 
ENDBRANCH   9  10
ENDBRANCH   1   9
TORSDOF 5
ENDMDL
MODEL 9
REMARK VINA RESULT:      -3.9     18.656     19.766
REMARK  Name = peptide_27_TLVKTTIQSH
REMARK  7 active torsions:
REMARK  status: ('A' for Active; 'I' for Inactive)
REMARK    1  A    between atoms: N_1  and  CA_2
REMARK    2  A    between atoms: CA_2  and  CB_3
REMARK    3  A    between atoms: CA_2  and  C_7
REMARK    4  A    between atoms: CB_3  and  CG_4
REMARK    5  A    between atoms: CG_4  and  CD1_5
REMARK    6  A    between atoms: CG_4  and  CD2_6
REMARK    7  A    between atoms: C_7  and  OXT_9
REMARK                            x       y       z     vdW  Elec       q    Type
REMARK                         _______ _______ _______ _____ _____    ______ ____
ROOT
ATOM      1  CA  LEU A   1       8.012   5.614  26.018  0.00  0.00    +0.161 C 
ENDROOT
BRANCH   1   2
ATOM      2  N   LEU A   1       7.113   6.649  26.537  0.00  0.00    -0.318 NA
ATOM      3  H1  LEU A   1       7.016   7.400  25.815  0.00  0.00    +0.119 HD
ATOM      4  H2  LEU A   1       6.162   6.241  26.696  0.00  0.00    +0.119 HD
ENDBRANCH   1   2
BRANCH   1   5
ATOM      5  C   LEU A   1       8.314   4.606  27.095  0.00  0.00    +0.322 C 
ATOM      6  O   LEU A   1       7.746   4.694  28.218  0.00  0.00    -0.249 OA
BRANCH   5   7
ATOM      7  OXT LEU A   1       9.229   3.583  26.859  0.00  0.00    -0.479 OA
ATOM      8  HXT LEU A   1       9.491   3.328  25.914  0.00  0.00    +0.295 HD
ENDBRANCH   5   7
ENDBRANCH   1   5
BRANCH   1   9
ATOM      9  CB  LEU A   1       9.322   6.243  25.487  0.00  0.00    +0.033 C 
BRANCH   9  10
ATOM     10  CG  LEU A   1       9.529   7.716  25.920  0.00  0.00    -0.015 C 
ATOM     11  CD1 LEU A   1      10.028   8.543  24.728  0.00  0.00    +0.007 C 
ATOM     12  CD2 LEU A   1      10.513   7.849  27.092  0.00  0.00    +0.007 C 
ENDBRANCH   9  10
ENDBRANCH   1   9
TORSDOF 5
ENDMDL
