MODEL 1
REMARK VINA RESULT:      -6.2      0.000      0.000
REMARK  Name = peptide_42_PKKKHCMLVP
REMARK  5 active torsions:
REMARK  status: ('A' for Active; 'I' for Inactive)
REMARK    1  A    between atoms: N_1  and  CA_2
REMARK    2  A    between atoms: CA_2  and  CB_3
REMARK    3  A    between atoms: CA_2  and  C_13
REMARK    4  A    between atoms: CB_3  and  CG_4
REMARK    5  A    between atoms: C_13  and  OXT_15
REMARK                            x       y       z     vdW  Elec       q    Type
REMARK                         _______ _______ _______ _____ _____    ______ ____
ROOT
ATOM      1  CG  TRP A   1      18.355   5.315   9.128  0.00  0.00    -0.020 A 
ATOM      2  CD1 TRP A   1      18.139   3.940   9.111  0.00  0.00    +0.087 A 
ATOM      3  NE1 TRP A   1      19.318   3.277   9.145  0.00  0.00    -0.360 N 
ATOM      4  CE2 TRP A   1      20.274   4.222   9.172  0.00  0.00    +0.047 A 
ATOM      5  CZ2 TRP A   1      21.655   4.027   9.193  0.00  0.00    +0.026 A 
ATOM      6  CH2 TRP A   1      22.480   5.166   9.198  0.00  0.00    +0.002 A 
ATOM      7  CZ3 TRP A   1      21.914   6.460   9.180  0.00  0.00    +0.001 A 
ATOM      8  CE3 TRP A   1      20.518   6.626   9.157  0.00  0.00    +0.010 A 
ATOM      9  CD2 TRP A   1      19.726   5.478   9.158  0.00  0.00    +0.003 A 
ATOM     10  HE1 TRP A   1      19.453   2.242   9.137  0.00  0.00    +0.165 HD
ENDROOT
BRANCH   1  11
ATOM     11  CB  TRP A   1      17.307   6.387   9.028  0.00  0.00    +0.067 C 
BRANCH  11  12
ATOM     12  CA  TRP A   1      16.188   6.186  10.070  0.00  0.00    +0.165 C 
BRANCH  12  13
ATOM     13  N   TRP A   1      14.990   6.946   9.707  0.00  0.00    -0.318 NA
ATOM     14  H1  TRP A   1      14.458   6.405   8.987  0.00  0.00    +0.119 HD
ATOM     15  H2  TRP A   1      15.271   7.853   9.266  0.00  0.00    +0.119 HD
ENDBRANCH  12  13
BRANCH  12  16
ATOM     16  C   TRP A   1      16.645   6.589  11.445  0.00  0.00    +0.322 C 
ATOM     17  O   TRP A   1      17.319   7.642  11.610  0.00  0.00    -0.249 OA
BRANCH  16  18
ATOM     18  OXT TRP A   1      16.348   5.779  12.537  0.00  0.00    -0.479 OA
ATOM     19  HXT TRP A   1      16.537   4.784  12.512  0.00  0.00    +0.295 HD
ENDBRANCH  16  18
ENDBRANCH  12  16
ENDBRANCH  11  12
ENDBRANCH   1  11
TORSDOF 5
ENDMDL
MODEL 2
REMARK VINA RESULT:      -6.2     46.111     47.396
REMARK  Name = peptide_42_PKKKHCMLVP
REMARK  5 active torsions:
REMARK  status: ('A' for Active; 'I' for Inactive)
REMARK    1  A    between atoms: N_1  and  CA_2
REMARK    2  A    between atoms: CA_2  and  CB_3
REMARK    3  A    between atoms: CA_2  and  C_13
REMARK    4  A    between atoms: CB_3  and  CG_4
REMARK    5  A    between atoms: C_13  and  OXT_15
REMARK                            x       y       z     vdW  Elec       q    Type
REMARK                         _______ _______ _______ _____ _____    ______ ____
ROOT
ATOM      1  CG  TRP A   1      -9.484  -0.164  47.879  0.00  0.00    -0.020 A 
ATOM      2  CD1 TRP A   1      -9.840   1.180  47.832  0.00  0.00    +0.087 A 
ATOM      3  NE1 TRP A   1      -8.740   1.963  47.912  0.00  0.00    -0.360 N 
ATOM      4  CE2 TRP A   1      -7.695   1.124  48.022  0.00  0.00    +0.047 A 
ATOM      5  CZ2 TRP A   1      -6.349   1.464  48.152  0.00  0.00    +0.026 A 
ATOM      6  CH2 TRP A   1      -5.415   0.418  48.274  0.00  0.00    +0.002 A 
ATOM      7  CZ3 TRP A   1      -5.844  -0.928  48.265  0.00  0.00    +0.001 A 
ATOM      8  CE3 TRP A   1      -7.208  -1.241  48.134  0.00  0.00    +0.010 A 
ATOM      9  CD2 TRP A   1      -8.109  -0.183  48.010  0.00  0.00    +0.003 A 
ATOM     10  HE1 TRP A   1      -8.714   3.006  47.906  0.00  0.00    +0.165 HD
ENDROOT
BRANCH   1  11
ATOM     11  CB  TRP A   1     -10.420  -1.340  47.891  0.00  0.00    +0.067 C 
BRANCH  11  12
ATOM     12  CA  TRP A   1     -11.714  -1.042  47.106  0.00  0.00    +0.165 C 
BRANCH  12  13
ATOM     13  N   TRP A   1     -12.890  -1.526  47.832  0.00  0.00    -0.318 NA
ATOM     14  H1  TRP A   1     -12.891  -1.099  48.787  0.00  0.00    +0.119 HD
ATOM     15  H2  TRP A   1     -12.823  -2.562  47.957  0.00  0.00    +0.119 HD
ENDBRANCH  12  13
BRANCH  12  16
ATOM     16  C   TRP A   1     -11.675  -1.661  45.736  0.00  0.00    +0.322 C 
ATOM     17  O   TRP A   1     -11.651  -2.914  45.603  0.00  0.00    -0.249 OA
BRANCH  16  18
ATOM     18  OXT TRP A   1     -11.634  -0.843  44.610  0.00  0.00    -0.479 OA
ATOM     19  HXT TRP A   1     -12.282  -0.983  43.843  0.00  0.00    +0.295 HD
ENDBRANCH  16  18
ENDBRANCH  12  16
ENDBRANCH  11  12
ENDBRANCH   1  11
TORSDOF 5
ENDMDL
MODEL 3
REMARK VINA RESULT:      -5.7      1.424      1.537
REMARK  Name = peptide_42_PKKKHCMLVP
REMARK  5 active torsions:
REMARK  status: ('A' for Active; 'I' for Inactive)
REMARK    1  A    between atoms: N_1  and  CA_2
REMARK    2  A    between atoms: CA_2  and  CB_3
REMARK    3  A    between atoms: CA_2  and  C_13
REMARK    4  A    between atoms: CB_3  and  CG_4
REMARK    5  A    between atoms: C_13  and  OXT_15
REMARK                            x       y       z     vdW  Elec       q    Type
REMARK                         _______ _______ _______ _____ _____    ______ ____
ROOT
ATOM      1  CG  TRP A   1      18.236   5.282   9.089  0.00  0.00    -0.020 A 
ATOM      2  CD1 TRP A   1      18.099   3.897   9.095  0.00  0.00    +0.087 A 
ATOM      3  NE1 TRP A   1      19.312   3.303   9.180  0.00  0.00    -0.360 N 
ATOM      4  CE2 TRP A   1      20.212   4.301   9.216  0.00  0.00    +0.047 A 
ATOM      5  CZ2 TRP A   1      21.600   4.186   9.285  0.00  0.00    +0.026 A 
ATOM      6  CH2 TRP A   1      22.359   5.370   9.292  0.00  0.00    +0.002 A 
ATOM      7  CZ3 TRP A   1      21.722   6.629   9.228  0.00  0.00    +0.001 A 
ATOM      8  CE3 TRP A   1      20.320   6.715   9.158  0.00  0.00    +0.010 A 
ATOM      9  CD2 TRP A   1      19.594   5.524   9.158  0.00  0.00    +0.003 A 
ATOM     10  HE1 TRP A   1      19.506   2.278   9.198  0.00  0.00    +0.165 HD
ENDROOT
BRANCH   1  11
ATOM     11  CB  TRP A   1      17.133   6.290   8.933  0.00  0.00    +0.067 C 
BRANCH  11  12
ATOM     12  CA  TRP A   1      16.774   6.950  10.280  0.00  0.00    +0.165 C 
BRANCH  12  13
ATOM     13  N   TRP A   1      16.776   5.965  11.363  0.00  0.00    -0.318 NA
ATOM     14  H1  TRP A   1      15.792   5.832  11.694  0.00  0.00    +0.119 HD
ATOM     15  H2  TRP A   1      17.327   6.336  12.173  0.00  0.00    +0.119 HD
ENDBRANCH  12  13
BRANCH  12  16
ATOM     16  C   TRP A   1      15.432   7.626  10.215  0.00  0.00    +0.322 C 
ATOM     17  O   TRP A   1      15.050   8.378  11.151  0.00  0.00    -0.249 OA
BRANCH  16  18
ATOM     18  OXT TRP A   1      14.594   7.394   9.127  0.00  0.00    -0.479 OA
ATOM     19  HXT TRP A   1      14.782   7.820   8.227  0.00  0.00    +0.295 HD
ENDBRANCH  16  18
ENDBRANCH  12  16
ENDBRANCH  11  12
ENDBRANCH   1  11
TORSDOF 5
ENDMDL
MODEL 4
REMARK VINA RESULT:      -5.6      3.903      5.561
REMARK  Name = peptide_42_PKKKHCMLVP
REMARK  5 active torsions:
REMARK  status: ('A' for Active; 'I' for Inactive)
REMARK    1  A    between atoms: N_1  and  CA_2
REMARK    2  A    between atoms: CA_2  and  CB_3
REMARK    3  A    between atoms: CA_2  and  C_13
REMARK    4  A    between atoms: CB_3  and  CG_4
REMARK    5  A    between atoms: C_13  and  OXT_15
REMARK                            x       y       z     vdW  Elec       q    Type
REMARK                         _______ _______ _______ _____ _____    ______ ____
ROOT
ATOM      1  CG  TRP A   1      21.475   5.453   8.639  0.00  0.00    -0.020 A 
ATOM      2  CD1 TRP A   1      21.743   4.090   8.726  0.00  0.00    +0.087 A 
ATOM      3  NE1 TRP A   1      20.624   3.410   9.066  0.00  0.00    -0.360 N 
ATOM      4  CE2 TRP A   1      19.657   4.333   9.206  0.00  0.00    +0.047 A 
ATOM      5  CZ2 TRP A   1      18.328   4.117   9.568  0.00  0.00    +0.026 A 
ATOM      6  CH2 TRP A   1      17.484   5.238   9.675  0.00  0.00    +0.002 A 
ATOM      7  CZ3 TRP A   1      17.982   6.535   9.423  0.00  0.00    +0.001 A 
ATOM      8  CE3 TRP A   1      19.328   6.724   9.061  0.00  0.00    +0.010 A 
ATOM      9  CD2 TRP A   1      20.138   5.593   8.958  0.00  0.00    +0.003 A 
ATOM     10  HE1 TRP A   1      20.537   2.379   9.206  0.00  0.00    +0.165 HD
ENDROOT
BRANCH   1  11
ATOM     11  CB  TRP A   1      22.468   6.545   8.359  0.00  0.00    +0.067 C 
BRANCH  11  12
ATOM     12  CA  TRP A   1      23.449   6.735   9.533  0.00  0.00    +0.165 C 
BRANCH  12  13
ATOM     13  N   TRP A   1      22.857   7.567  10.582  0.00  0.00    -0.318 NA
ATOM     14  H1  TRP A   1      23.349   8.490  10.592  0.00  0.00    +0.119 HD
ATOM     15  H2  TRP A   1      23.017   7.121  11.515  0.00  0.00    +0.119 HD
ENDBRANCH  12  13
BRANCH  12  16
ATOM     16  C   TRP A   1      24.741   7.349   9.070  0.00  0.00    +0.322 C 
ATOM     17  O   TRP A   1      24.819   7.892   7.935  0.00  0.00    -0.249 OA
BRANCH  16  18
ATOM     18  OXT TRP A   1      25.867   7.289   9.888  0.00  0.00    -0.479 OA
ATOM     19  HXT TRP A   1      26.797   7.389   9.498  0.00  0.00    +0.295 HD
ENDBRANCH  16  18
ENDBRANCH  12  16
ENDBRANCH  11  12
ENDBRANCH   1  11
TORSDOF 5
ENDMDL
MODEL 5
REMARK VINA RESULT:      -5.3     18.038     19.080
REMARK  Name = peptide_42_PKKKHCMLVP
REMARK  5 active torsions:
REMARK  status: ('A' for Active; 'I' for Inactive)
REMARK    1  A    between atoms: N_1  and  CA_2
REMARK    2  A    between atoms: CA_2  and  CB_3
REMARK    3  A    between atoms: CA_2  and  C_13
REMARK    4  A    between atoms: CB_3  and  CG_4
REMARK    5  A    between atoms: C_13  and  OXT_15
REMARK                            x       y       z     vdW  Elec       q    Type
REMARK                         _______ _______ _______ _____ _____    ______ ____
ROOT
ATOM      1  CG  TRP A   1       8.552   8.070  25.213  0.00  0.00    -0.020 A 
ATOM      2  CD1 TRP A   1       9.896   8.216  24.883  0.00  0.00    +0.087 A 
ATOM      3  NE1 TRP A   1      10.600   7.131  25.282  0.00  0.00    -0.360 N 
ATOM      4  CE2 TRP A   1       9.713   6.309  25.870  0.00  0.00    +0.047 A 
ATOM      5  CZ2 TRP A   1       9.969   5.070  26.456  0.00  0.00    +0.026 A 
ATOM      6  CH2 TRP A   1       8.888   4.381  27.036  0.00  0.00    +0.002 A 
ATOM      7  CZ3 TRP A   1       7.591   4.940  27.020  0.00  0.00    +0.001 A 
ATOM      8  CE3 TRP A   1       7.363   6.193  26.423  0.00  0.00    +0.010 A 
ATOM      9  CD2 TRP A   1       8.453   6.849  25.851  0.00  0.00    +0.003 A 
ATOM     10  HE1 TRP A   1      11.626   6.975  25.168  0.00  0.00    +0.165 HD
ENDROOT
BRANCH   1  11
ATOM     11  CB  TRP A   1       7.464   9.085  25.005  0.00  0.00    +0.067 C 
BRANCH  11  12
ATOM     12  CA  TRP A   1       7.081   9.209  23.516  0.00  0.00    +0.165 C 
BRANCH  12  13
ATOM     13  N   TRP A   1       7.048  10.613  23.099  0.00  0.00    -0.318 NA
ATOM     14  H1  TRP A   1       7.862  11.108  23.530  0.00  0.00    +0.119 HD
ATOM     15  H2  TRP A   1       6.179  11.067  23.467  0.00  0.00    +0.119 HD
ENDBRANCH  12  13
BRANCH  12  16
ATOM     16  C   TRP A   1       5.749   8.569  23.241  0.00  0.00    +0.322 C 
ATOM     17  O   TRP A   1       4.771   9.267  22.859  0.00  0.00    -0.249 OA
BRANCH  16  18
ATOM     18  OXT TRP A   1       5.586   7.200  23.439  0.00  0.00    -0.479 OA
ATOM     19  HXT TRP A   1       4.868   6.686  22.943  0.00  0.00    +0.295 HD
ENDBRANCH  16  18
ENDBRANCH  12  16
ENDBRANCH  11  12
ENDBRANCH   1  11
TORSDOF 5
ENDMDL
MODEL 6
REMARK VINA RESULT:      -5.2     18.561     20.031
REMARK  Name = peptide_42_PKKKHCMLVP
REMARK  5 active torsions:
REMARK  status: ('A' for Active; 'I' for Inactive)
REMARK    1  A    between atoms: N_1  and  CA_2
REMARK    2  A    between atoms: CA_2  and  CB_3
REMARK    3  A    between atoms: CA_2  and  C_13
REMARK    4  A    between atoms: CB_3  and  CG_4
REMARK    5  A    between atoms: C_13  and  OXT_15
REMARK                            x       y       z     vdW  Elec       q    Type
REMARK                         _______ _______ _______ _____ _____    ______ ____
ROOT
ATOM      1  CG  TRP A   1       8.402   8.021  25.242  0.00  0.00    -0.020 A 
ATOM      2  CD1 TRP A   1       9.745   8.299  25.009  0.00  0.00    +0.087 A 
ATOM      3  NE1 TRP A   1      10.523   7.296  25.478  0.00  0.00    -0.360 N 
ATOM      4  CE2 TRP A   1       9.681   6.394  26.014  0.00  0.00    +0.047 A 
ATOM      5  CZ2 TRP A   1      10.016   5.194  26.640  0.00  0.00    +0.026 A 
ATOM      6  CH2 TRP A   1       8.970   4.405  27.151  0.00  0.00    +0.002 A 
ATOM      7  CZ3 TRP A   1       7.628   4.830  27.030  0.00  0.00    +0.001 A 
ATOM      8  CE3 TRP A   1       7.320   6.046  26.395  0.00  0.00    +0.010 A 
ATOM      9  CD2 TRP A   1       8.378   6.804  25.893  0.00  0.00    +0.003 A 
ATOM     10  HE1 TRP A   1      11.564   7.244  25.442  0.00  0.00    +0.165 HD
ENDROOT
BRANCH   1  11
ATOM     11  CB  TRP A   1       7.235   8.919  24.936  0.00  0.00    +0.067 C 
BRANCH  11  12
ATOM     12  CA  TRP A   1       6.837   9.768  26.160  0.00  0.00    +0.165 C 
BRANCH  12  13
ATOM     13  N   TRP A   1       7.945   9.866  27.113  0.00  0.00    -0.318 NA
ATOM     14  H1  TRP A   1       8.830   9.598  26.623  0.00  0.00    +0.119 HD
ATOM     15  H2  TRP A   1       7.801   9.178  27.889  0.00  0.00    +0.119 HD
ENDBRANCH  12  13
BRANCH  12  16
ATOM     16  C   TRP A   1       5.627   9.199  26.848  0.00  0.00    +0.322 C 
ATOM     17  O   TRP A   1       4.767   8.550  26.193  0.00  0.00    -0.249 OA
BRANCH  16  18
ATOM     18  OXT TRP A   1       5.441   9.416  28.210  0.00  0.00    -0.479 OA
ATOM     19  HXT TRP A   1       5.771   8.744  28.893  0.00  0.00    +0.295 HD
ENDBRANCH  16  18
ENDBRANCH  12  16
ENDBRANCH  11  12
ENDBRANCH   1  11
TORSDOF 5
ENDMDL
MODEL 7
REMARK VINA RESULT:      -5.2     33.443     34.933
REMARK  Name = peptide_42_PKKKHCMLVP
REMARK  5 active torsions:
REMARK  status: ('A' for Active; 'I' for Inactive)
REMARK    1  A    between atoms: N_1  and  CA_2
REMARK    2  A    between atoms: CA_2  and  CB_3
REMARK    3  A    between atoms: CA_2  and  C_13
REMARK    4  A    between atoms: CB_3  and  CG_4
REMARK    5  A    between atoms: C_13  and  OXT_15
REMARK                            x       y       z     vdW  Elec       q    Type
REMARK                         _______ _______ _______ _____ _____    ______ ____
ROOT
ATOM      1  CG  TRP A   1      12.083  -4.968  42.423  0.00  0.00    -0.020 A 
ATOM      2  CD1 TRP A   1      12.642  -6.043  43.107  0.00  0.00    +0.087 A 
ATOM      3  NE1 TRP A   1      13.968  -6.127  42.851  0.00  0.00    -0.360 N 
ATOM      4  CE2 TRP A   1      14.246  -5.122  42.001  0.00  0.00    +0.047 A 
ATOM      5  CZ2 TRP A   1      15.482  -4.812  41.436  0.00  0.00    +0.026 A 
ATOM      6  CH2 TRP A   1      15.545  -3.721  40.550  0.00  0.00    +0.002 A 
ATOM      7  CZ3 TRP A   1      14.384  -2.975  40.251  0.00  0.00    +0.001 A 
ATOM      8  CE3 TRP A   1      13.150  -3.312  40.835  0.00  0.00    +0.010 A 
ATOM      9  CD2 TRP A   1      13.120  -4.395  41.713  0.00  0.00    +0.003 A 
ATOM     10  HE1 TRP A   1      14.633  -6.839  43.225  0.00  0.00    +0.165 HD
ENDROOT
BRANCH   1  11
ATOM     11  CB  TRP A   1      10.630  -4.585  42.389  0.00  0.00    +0.067 C 
BRANCH  11  12
ATOM     12  CA  TRP A   1       9.729  -5.737  42.877  0.00  0.00    +0.165 C 
BRANCH  12  13
ATOM     13  N   TRP A   1       8.868  -6.222  41.796  0.00  0.00    -0.318 NA
ATOM     14  H1  TRP A   1       9.015  -7.252  41.690  0.00  0.00    +0.119 HD
ATOM     15  H2  TRP A   1       9.152  -5.774  40.894  0.00  0.00    +0.119 HD
ENDBRANCH  12  13
BRANCH  12  16
ATOM     16  C   TRP A   1       8.882  -5.310  44.044  0.00  0.00    +0.322 C 
ATOM     17  O   TRP A   1       8.483  -6.159  44.887  0.00  0.00    -0.249 OA
BRANCH  16  18
ATOM     18  OXT TRP A   1       8.512  -3.975  44.177  0.00  0.00    -0.479 OA
ATOM     19  HXT TRP A   1       7.711  -3.712  44.739  0.00  0.00    +0.295 HD
ENDBRANCH  16  18
ENDBRANCH  12  16
ENDBRANCH  11  12
ENDBRANCH   1  11
TORSDOF 5
ENDMDL
MODEL 8
REMARK VINA RESULT:      -5.1      2.069      2.839
REMARK  Name = peptide_42_PKKKHCMLVP
REMARK  5 active torsions:
REMARK  status: ('A' for Active; 'I' for Inactive)
REMARK    1  A    between atoms: N_1  and  CA_2
REMARK    2  A    between atoms: CA_2  and  CB_3
REMARK    3  A    between atoms: CA_2  and  C_13
REMARK    4  A    between atoms: CB_3  and  CG_4
REMARK    5  A    between atoms: C_13  and  OXT_15
REMARK                            x       y       z     vdW  Elec       q    Type
REMARK                         _______ _______ _______ _____ _____    ______ ____
ROOT
ATOM      1  CG  TRP A   1      19.498   6.354   9.326  0.00  0.00    -0.020 A 
ATOM      2  CD1 TRP A   1      19.718   7.722   9.197  0.00  0.00    +0.087 A 
ATOM      3  NE1 TRP A   1      21.035   7.974   9.017  0.00  0.00    -0.360 N 
ATOM      4  CE2 TRP A   1      21.648   6.778   9.044  0.00  0.00    +0.047 A 
ATOM      5  CZ2 TRP A   1      23.014   6.525   8.919  0.00  0.00    +0.026 A 
ATOM      6  CH2 TRP A   1      23.446   5.188   8.996  0.00  0.00    +0.002 A 
ATOM      7  CZ3 TRP A   1      22.514   4.146   9.196  0.00  0.00    +0.001 A 
ATOM      8  CE3 TRP A   1      21.142   4.431   9.320  0.00  0.00    +0.010 A 
ATOM      9  CD2 TRP A   1      20.744   5.765   9.234  0.00  0.00    +0.003 A 
ATOM     10  HE1 TRP A   1      21.482   8.910   8.899  0.00  0.00    +0.165 HD
ENDROOT
BRANCH   1  11
ATOM     11  CB  TRP A   1      18.186   5.680   9.610  0.00  0.00    +0.067 C 
BRANCH  11  12
ATOM     12  CA  TRP A   1      17.217   6.618  10.357  0.00  0.00    +0.165 C 
BRANCH  12  13
ATOM     13  N   TRP A   1      16.702   5.981  11.571  0.00  0.00    -0.318 NA
ATOM     14  H1  TRP A   1      15.705   5.710  11.408  0.00  0.00    +0.119 HD
ATOM     15  H2  TRP A   1      16.710   6.671  12.359  0.00  0.00    +0.119 HD
ENDBRANCH  12  13
BRANCH  12  16
ATOM     16  C   TRP A   1      16.069   7.029   9.477  0.00  0.00    +0.322 C 
ATOM     17  O   TRP A   1      14.961   6.433   9.554  0.00  0.00    -0.249 OA
BRANCH  16  18
ATOM     18  OXT TRP A   1      16.241   8.054   8.551  0.00  0.00    -0.479 OA
ATOM     19  HXT TRP A   1      16.811   8.862   8.771  0.00  0.00    +0.295 HD
ENDBRANCH  16  18
ENDBRANCH  12  16
ENDBRANCH  11  12
ENDBRANCH   1  11
TORSDOF 5
ENDMDL
MODEL 9
REMARK VINA RESULT:      -5.1     21.558     22.849
REMARK  Name = peptide_42_PKKKHCMLVP
REMARK  5 active torsions:
REMARK  status: ('A' for Active; 'I' for Inactive)
REMARK    1  A    between atoms: N_1  and  CA_2
REMARK    2  A    between atoms: CA_2  and  CB_3
REMARK    3  A    between atoms: CA_2  and  C_13
REMARK    4  A    between atoms: CB_3  and  CG_4
REMARK    5  A    between atoms: C_13  and  OXT_15
REMARK                            x       y       z     vdW  Elec       q    Type
REMARK                         _______ _______ _______ _____ _____    ______ ____
ROOT
ATOM      1  CG  TRP A   1       4.627  -2.073  24.418  0.00  0.00    -0.020 A 
ATOM      2  CD1 TRP A   1       5.620  -1.119  24.621  0.00  0.00    +0.087 A 
ATOM      3  NE1 TRP A   1       5.141   0.121  24.372  0.00  0.00    -0.360 N 
ATOM      4  CE2 TRP A   1       3.859  -0.043  24.003  0.00  0.00    +0.047 A 
ATOM      5  CZ2 TRP A   1       2.953   0.949  23.629  0.00  0.00    +0.026 A 
ATOM      6  CH2 TRP A   1       1.656   0.550  23.258  0.00  0.00    +0.002 A 
ATOM      7  CZ3 TRP A   1       1.298  -0.817  23.267  0.00  0.00    +0.001 A 
ATOM      8  CE3 TRP A   1       2.233  -1.796  23.648  0.00  0.00    +0.010 A 
ATOM      9  CD2 TRP A   1       3.509  -1.369  24.015  0.00  0.00    +0.003 A 
ATOM     10  HE1 TRP A   1       5.669   1.020  24.439  0.00  0.00    +0.165 HD
ENDROOT
BRANCH   1  11
ATOM     11  CB  TRP A   1       4.782  -3.564  24.520  0.00  0.00    +0.067 C 
BRANCH  11  12
ATOM     12  CA  TRP A   1       5.712  -3.959  25.685  0.00  0.00    +0.165 C 
BRANCH  12  13
ATOM     13  N   TRP A   1       6.583  -5.073  25.305  0.00  0.00    -0.318 NA
ATOM     14  H1  TRP A   1       7.113  -4.803  24.444  0.00  0.00    +0.119 HD
ATOM     15  H2  TRP A   1       5.999  -5.907  25.060  0.00  0.00    +0.119 HD
ENDBRANCH  12  13
BRANCH  12  16
ATOM     16  C   TRP A   1       4.923  -4.329  26.910  0.00  0.00    +0.322 C 
ATOM     17  O   TRP A   1       4.940  -5.512  27.347  0.00  0.00    -0.249 OA
BRANCH  16  18
ATOM     18  OXT TRP A   1       4.145  -3.367  27.547  0.00  0.00    -0.479 OA
ATOM     19  HXT TRP A   1       3.643  -2.668  27.013  0.00  0.00    +0.295 HD
ENDBRANCH  16  18
ENDBRANCH  12  16
ENDBRANCH  11  12
ENDBRANCH   1  11
TORSDOF 5
ENDMDL
