MODEL 1
REMARK VINA RESULT:      -6.2      0.000      0.000
REMARK  Name = peptide_36_ARIFWCPELG
REMARK  5 active torsions:
REMARK  status: ('A' for Active; 'I' for Inactive)
REMARK    1  A    between atoms: N_1  and  CA_2
REMARK    2  A    between atoms: CA_2  and  CB_3
REMARK    3  A    between atoms: CA_2  and  C_13
REMARK    4  A    between atoms: CB_3  and  CG_4
REMARK    5  A    between atoms: C_13  and  OXT_15
REMARK                            x       y       z     vdW  Elec       q    Type
REMARK                         _______ _______ _______ _____ _____    ______ ____
ROOT
ATOM      1  CG  TRP A   1      18.348   5.312   9.123  0.00  0.00    -0.020 A 
ATOM      2  CD1 TRP A   1      18.137   3.937   9.110  0.00  0.00    +0.087 A 
ATOM      3  NE1 TRP A   1      19.318   3.278   9.149  0.00  0.00    -0.360 N 
ATOM      4  CE2 TRP A   1      20.271   4.226   9.174  0.00  0.00    +0.047 A 
ATOM      5  CZ2 TRP A   1      21.652   4.035   9.198  0.00  0.00    +0.026 A 
ATOM      6  CH2 TRP A   1      22.474   5.177   9.201  0.00  0.00    +0.002 A 
ATOM      7  CZ3 TRP A   1      21.904   6.469   9.178  0.00  0.00    +0.001 A 
ATOM      8  CE3 TRP A   1      20.507   6.631   9.151  0.00  0.00    +0.010 A 
ATOM      9  CD2 TRP A   1      19.719   5.480   9.154  0.00  0.00    +0.003 A 
ATOM     10  HE1 TRP A   1      19.457   2.243   9.144  0.00  0.00    +0.165 HD
ENDROOT
BRANCH   1  11
ATOM     11  CB  TRP A   1      17.297   6.381   9.017  0.00  0.00    +0.067 C 
BRANCH  11  12
ATOM     12  CA  TRP A   1      16.184   6.187  10.067  0.00  0.00    +0.165 C 
BRANCH  12  13
ATOM     13  N   TRP A   1      14.990   6.958   9.714  0.00  0.00    -0.318 NA
ATOM     14  H1  TRP A   1      14.966   7.076   8.674  0.00  0.00    +0.119 HD
ATOM     15  H2  TRP A   1      15.055   7.915  10.132  0.00  0.00    +0.119 HD
ENDBRANCH  12  13
BRANCH  12  16
ATOM     16  C   TRP A   1      16.654   6.584  11.439  0.00  0.00    +0.322 C 
ATOM     17  O   TRP A   1      17.351   7.622  11.600  0.00  0.00    -0.249 OA
BRANCH  16  18
ATOM     18  OXT TRP A   1      16.343   5.782  12.534  0.00  0.00    -0.479 OA
ATOM     19  HXT TRP A   1      16.939   5.005  12.794  0.00  0.00    +0.295 HD
ENDBRANCH  16  18
ENDBRANCH  12  16
ENDBRANCH  11  12
ENDBRANCH   1  11
TORSDOF 5
ENDMDL
MODEL 2
REMARK VINA RESULT:      -6.2     46.094     47.422
REMARK  Name = peptide_36_ARIFWCPELG
REMARK  5 active torsions:
REMARK  status: ('A' for Active; 'I' for Inactive)
REMARK    1  A    between atoms: N_1  and  CA_2
REMARK    2  A    between atoms: CA_2  and  CB_3
REMARK    3  A    between atoms: CA_2  and  C_13
REMARK    4  A    between atoms: CB_3  and  CG_4
REMARK    5  A    between atoms: C_13  and  OXT_15
REMARK                            x       y       z     vdW  Elec       q    Type
REMARK                         _______ _______ _______ _____ _____    ______ ____
ROOT
ATOM      1  CG  TRP A   1      -9.507  -0.142  47.942  0.00  0.00    -0.020 A 
ATOM      2  CD1 TRP A   1      -9.845   1.208  47.900  0.00  0.00    +0.087 A 
ATOM      3  NE1 TRP A   1      -8.731   1.975  47.950  0.00  0.00    -0.360 N 
ATOM      4  CE2 TRP A   1      -7.696   1.121  48.034  0.00  0.00    +0.047 A 
ATOM      5  CZ2 TRP A   1      -6.342   1.441  48.128  0.00  0.00    +0.026 A 
ATOM      6  CH2 TRP A   1      -5.421   0.382  48.227  0.00  0.00    +0.002 A 
ATOM      7  CZ3 TRP A   1      -5.869  -0.957  48.234  0.00  0.00    +0.001 A 
ATOM      8  CE3 TRP A   1      -7.241  -1.251  48.140  0.00  0.00    +0.010 A 
ATOM      9  CD2 TRP A   1      -8.129  -0.180  48.037  0.00  0.00    +0.003 A 
ATOM     10  HE1 TRP A   1      -8.690   3.018  47.940  0.00  0.00    +0.165 HD
ENDROOT
BRANCH   1  11
ATOM     11  CB  TRP A   1     -10.459  -1.303  47.981  0.00  0.00    +0.067 C 
BRANCH  11  12
ATOM     12  CA  TRP A   1     -11.733  -1.019  47.160  0.00  0.00    +0.165 C 
BRANCH  12  13
ATOM     13  N   TRP A   1     -12.925  -1.509  47.855  0.00  0.00    -0.318 NA
ATOM     14  H1  TRP A   1     -12.688  -1.651  48.864  0.00  0.00    +0.119 HD
ATOM     15  H2  TRP A   1     -13.197  -2.443  47.468  0.00  0.00    +0.119 HD
ENDBRANCH  12  13
BRANCH  12  16
ATOM     16  C   TRP A   1     -11.652  -1.644  45.795  0.00  0.00    +0.322 C 
ATOM     17  O   TRP A   1     -11.602  -2.897  45.668  0.00  0.00    -0.249 OA
BRANCH  16  18
ATOM     18  OXT TRP A   1     -11.600  -0.832  44.665  0.00  0.00    -0.479 OA
ATOM     19  HXT TRP A   1     -11.882  -1.185  43.758  0.00  0.00    +0.295 HD
ENDBRANCH  16  18
ENDBRANCH  12  16
ENDBRANCH  11  12
ENDBRANCH   1  11
TORSDOF 5
ENDMDL
MODEL 3
REMARK VINA RESULT:      -5.7     45.058     46.740
REMARK  Name = peptide_36_ARIFWCPELG
REMARK  5 active torsions:
REMARK  status: ('A' for Active; 'I' for Inactive)
REMARK    1  A    between atoms: N_1  and  CA_2
REMARK    2  A    between atoms: CA_2  and  CB_3
REMARK    3  A    between atoms: CA_2  and  C_13
REMARK    4  A    between atoms: CB_3  and  CG_4
REMARK    5  A    between atoms: C_13  and  OXT_15
REMARK                            x       y       z     vdW  Elec       q    Type
REMARK                         _______ _______ _______ _____ _____    ______ ____
ROOT
ATOM      1  CG  TRP A   1      -6.594   0.186  48.724  0.00  0.00    -0.020 A 
ATOM      2  CD1 TRP A   1      -6.451   1.558  48.543  0.00  0.00    +0.087 A 
ATOM      3  NE1 TRP A   1      -7.603   2.096  48.079  0.00  0.00    -0.360 N 
ATOM      4  CE2 TRP A   1      -8.466   1.073  47.954  0.00  0.00    +0.047 A 
ATOM      5  CZ2 TRP A   1      -9.780   1.127  47.492  0.00  0.00    +0.026 A 
ATOM      6  CH2 TRP A   1     -10.504  -0.077  47.423  0.00  0.00    +0.002 A 
ATOM      7  CZ3 TRP A   1      -9.904  -1.296  47.811  0.00  0.00    +0.001 A 
ATOM      8  CE3 TRP A   1      -8.575  -1.321  48.272  0.00  0.00    +0.010 A 
ATOM      9  CD2 TRP A   1      -7.885  -0.110  48.334  0.00  0.00    +0.003 A 
ATOM     10  HE1 TRP A   1      -7.776   3.099  47.850  0.00  0.00    +0.165 HD
ENDROOT
BRANCH   1  11
ATOM     11  CB  TRP A   1      -5.524  -0.777  49.154  0.00  0.00    +0.067 C 
BRANCH  11  12
ATOM     12  CA  TRP A   1      -4.552  -1.098  48.001  0.00  0.00    +0.165 C 
BRANCH  12  13
ATOM     13  N   TRP A   1      -5.203  -1.921  46.981  0.00  0.00    -0.318 NA
ATOM     14  H1  TRP A   1      -5.279  -2.901  47.341  0.00  0.00    +0.119 HD
ATOM     15  H2  TRP A   1      -4.604  -1.954  46.123  0.00  0.00    +0.119 HD
ENDBRANCH  12  13
BRANCH  12  16
ATOM     16  C   TRP A   1      -3.320  -1.798  48.506  0.00  0.00    +0.322 C 
ATOM     17  O   TRP A   1      -3.279  -2.248  49.682  0.00  0.00    -0.249 OA
BRANCH  16  18
ATOM     18  OXT TRP A   1      -2.208  -1.922  47.678  0.00  0.00    -0.479 OA
ATOM     19  HXT TRP A   1      -1.321  -2.245  48.045  0.00  0.00    +0.295 HD
ENDBRANCH  16  18
ENDBRANCH  12  16
ENDBRANCH  11  12
ENDBRANCH   1  11
TORSDOF 5
ENDMDL
MODEL 4
REMARK VINA RESULT:      -5.6      3.892      5.553
REMARK  Name = peptide_36_ARIFWCPELG
REMARK  5 active torsions:
REMARK  status: ('A' for Active; 'I' for Inactive)
REMARK    1  A    between atoms: N_1  and  CA_2
REMARK    2  A    between atoms: CA_2  and  CB_3
REMARK    3  A    between atoms: CA_2  and  C_13
REMARK    4  A    between atoms: CB_3  and  CG_4
REMARK    5  A    between atoms: C_13  and  OXT_15
REMARK                            x       y       z     vdW  Elec       q    Type
REMARK                         _______ _______ _______ _____ _____    ______ ____
ROOT
ATOM      1  CG  TRP A   1      21.456   5.472   8.646  0.00  0.00    -0.020 A 
ATOM      2  CD1 TRP A   1      21.729   4.109   8.725  0.00  0.00    +0.087 A 
ATOM      3  NE1 TRP A   1      20.612   3.423   9.062  0.00  0.00    -0.360 N 
ATOM      4  CE2 TRP A   1      19.642   4.343   9.208  0.00  0.00    +0.047 A 
ATOM      5  CZ2 TRP A   1      18.314   4.120   9.570  0.00  0.00    +0.026 A 
ATOM      6  CH2 TRP A   1      17.467   5.237   9.684  0.00  0.00    +0.002 A 
ATOM      7  CZ3 TRP A   1      17.961   6.538   9.439  0.00  0.00    +0.001 A 
ATOM      8  CE3 TRP A   1      19.306   6.733   9.077  0.00  0.00    +0.010 A 
ATOM      9  CD2 TRP A   1      20.119   5.605   8.967  0.00  0.00    +0.003 A 
ATOM     10  HE1 TRP A   1      20.529   2.392   9.196  0.00  0.00    +0.165 HD
ENDROOT
BRANCH   1  11
ATOM     11  CB  TRP A   1      22.446   6.569   8.372  0.00  0.00    +0.067 C 
BRANCH  11  12
ATOM     12  CA  TRP A   1      23.438   6.743   9.539  0.00  0.00    +0.165 C 
BRANCH  12  13
ATOM     13  N   TRP A   1      22.860   7.573  10.598  0.00  0.00    -0.318 NA
ATOM     14  H1  TRP A   1      23.640   7.988  11.160  0.00  0.00    +0.119 HD
ATOM     15  H2  TRP A   1      22.298   6.973  11.246  0.00  0.00    +0.119 HD
ENDBRANCH  12  13
BRANCH  12  16
ATOM     16  C   TRP A   1      24.730   7.351   9.070  0.00  0.00    +0.322 C 
ATOM     17  O   TRP A   1      24.804   7.898   7.936  0.00  0.00    -0.249 OA
BRANCH  16  18
ATOM     18  OXT TRP A   1      25.860   7.282   9.880  0.00  0.00    -0.479 OA
ATOM     19  HXT TRP A   1      26.119   6.416  10.338  0.00  0.00    +0.295 HD
ENDBRANCH  16  18
ENDBRANCH  12  16
ENDBRANCH  11  12
ENDBRANCH   1  11
TORSDOF 5
ENDMDL
MODEL 5
REMARK VINA RESULT:      -5.3      2.617      3.594
REMARK  Name = peptide_36_ARIFWCPELG
REMARK  5 active torsions:
REMARK  status: ('A' for Active; 'I' for Inactive)
REMARK    1  A    between atoms: N_1  and  CA_2
REMARK    2  A    between atoms: CA_2  and  CB_3
REMARK    3  A    between atoms: CA_2  and  C_13
REMARK    4  A    between atoms: CB_3  and  CG_4
REMARK    5  A    between atoms: C_13  and  OXT_15
REMARK                            x       y       z     vdW  Elec       q    Type
REMARK                         _______ _______ _______ _____ _____    ______ ____
ROOT
ATOM      1  CG  TRP A   1      20.225   7.399   9.574  0.00  0.00    -0.020 A 
ATOM      2  CD1 TRP A   1      20.418   8.773   9.463  0.00  0.00    +0.087 A 
ATOM      3  NE1 TRP A   1      21.710   9.046   9.169  0.00  0.00    -0.360 N 
ATOM      4  CE2 TRP A   1      22.336   7.857   9.108  0.00  0.00    +0.047 A 
ATOM      5  CZ2 TRP A   1      23.686   7.626   8.851  0.00  0.00    +0.026 A 
ATOM      6  CH2 TRP A   1      24.138   6.293   8.853  0.00  0.00    +0.002 A 
ATOM      7  CZ3 TRP A   1      23.239   5.234   9.110  0.00  0.00    +0.001 A 
ATOM      8  CE3 TRP A   1      21.881   5.498   9.367  0.00  0.00    +0.010 A 
ATOM      9  CD2 TRP A   1      21.464   6.828   9.354  0.00  0.00    +0.003 A 
ATOM     10  HE1 TRP A   1      22.134   9.990   9.035  0.00  0.00    +0.165 HD
ENDROOT
BRANCH   1  11
ATOM     11  CB  TRP A   1      18.951   6.701   9.960  0.00  0.00    +0.067 C 
BRANCH  11  12
ATOM     12  CA  TRP A   1      18.358   5.909   8.777  0.00  0.00    +0.165 C 
BRANCH  12  13
ATOM     13  N   TRP A   1      17.115   6.523   8.306  0.00  0.00    -0.318 NA
ATOM     14  H1  TRP A   1      16.925   6.186   7.334  0.00  0.00    +0.119 HD
ATOM     15  H2  TRP A   1      17.234   7.561   8.256  0.00  0.00    +0.119 HD
ENDBRANCH  12  13
BRANCH  12  16
ATOM     16  C   TRP A   1      18.103   4.476   9.154  0.00  0.00    +0.322 C 
ATOM     17  O   TRP A   1      17.193   3.818   8.583  0.00  0.00    -0.249 OA
BRANCH  16  18
ATOM     18  OXT TRP A   1      18.858   3.882  10.162  0.00  0.00    -0.479 OA
ATOM     19  HXT TRP A   1      19.668   4.352  10.549  0.00  0.00    +0.295 HD
ENDBRANCH  16  18
ENDBRANCH  12  16
ENDBRANCH  11  12
ENDBRANCH   1  11
TORSDOF 5
ENDMDL
MODEL 6
REMARK VINA RESULT:      -5.3     18.036     19.083
REMARK  Name = peptide_36_ARIFWCPELG
REMARK  5 active torsions:
REMARK  status: ('A' for Active; 'I' for Inactive)
REMARK    1  A    between atoms: N_1  and  CA_2
REMARK    2  A    between atoms: CA_2  and  CB_3
REMARK    3  A    between atoms: CA_2  and  C_13
REMARK    4  A    between atoms: CB_3  and  CG_4
REMARK    5  A    between atoms: C_13  and  OXT_15
REMARK                            x       y       z     vdW  Elec       q    Type
REMARK                         _______ _______ _______ _____ _____    ______ ____
ROOT
ATOM      1  CG  TRP A   1       8.556   8.080  25.212  0.00  0.00    -0.020 A 
ATOM      2  CD1 TRP A   1       9.900   8.222  24.880  0.00  0.00    +0.087 A 
ATOM      3  NE1 TRP A   1      10.601   7.134  25.276  0.00  0.00    -0.360 N 
ATOM      4  CE2 TRP A   1       9.713   6.314  25.865  0.00  0.00    +0.047 A 
ATOM      5  CZ2 TRP A   1       9.966   5.074  26.450  0.00  0.00    +0.026 A 
ATOM      6  CH2 TRP A   1       8.884   4.388  27.031  0.00  0.00    +0.002 A 
ATOM      7  CZ3 TRP A   1       7.589   4.951  27.018  0.00  0.00    +0.001 A 
ATOM      8  CE3 TRP A   1       7.364   6.205  26.422  0.00  0.00    +0.010 A 
ATOM      9  CD2 TRP A   1       8.455   6.859  25.850  0.00  0.00    +0.003 A 
ATOM     10  HE1 TRP A   1      11.626   6.975  25.161  0.00  0.00    +0.165 HD
ENDROOT
BRANCH   1  11
ATOM     11  CB  TRP A   1       7.470   9.098  25.007  0.00  0.00    +0.067 C 
BRANCH  11  12
ATOM     12  CA  TRP A   1       7.075   9.215  23.521  0.00  0.00    +0.165 C 
BRANCH  12  13
ATOM     13  N   TRP A   1       7.037  10.616  23.097  0.00  0.00    -0.318 NA
ATOM     14  H1  TRP A   1       7.573  10.708  22.203  0.00  0.00    +0.119 HD
ATOM     15  H2  TRP A   1       7.520  11.211  23.810  0.00  0.00    +0.119 HD
ENDBRANCH  12  13
BRANCH  12  16
ATOM     16  C   TRP A   1       5.742   8.571  23.260  0.00  0.00    +0.322 C 
ATOM     17  O   TRP A   1       4.756   9.269  22.899  0.00  0.00    -0.249 OA
BRANCH  16  18
ATOM     18  OXT TRP A   1       5.588   7.200  23.448  0.00  0.00    -0.479 OA
ATOM     19  HXT TRP A   1       5.623   6.561  22.663  0.00  0.00    +0.295 HD
ENDBRANCH  16  18
ENDBRANCH  12  16
ENDBRANCH  11  12
ENDBRANCH   1  11
TORSDOF 5
ENDMDL
MODEL 7
REMARK VINA RESULT:      -5.2     18.550     20.017
REMARK  Name = peptide_36_ARIFWCPELG
REMARK  5 active torsions:
REMARK  status: ('A' for Active; 'I' for Inactive)
REMARK    1  A    between atoms: N_1  and  CA_2
REMARK    2  A    between atoms: CA_2  and  CB_3
REMARK    3  A    between atoms: CA_2  and  C_13
REMARK    4  A    between atoms: CB_3  and  CG_4
REMARK    5  A    between atoms: C_13  and  OXT_15
REMARK                            x       y       z     vdW  Elec       q    Type
REMARK                         _______ _______ _______ _____ _____    ______ ____
ROOT
ATOM      1  CG  TRP A   1       8.413   8.043  25.238  0.00  0.00    -0.020 A 
ATOM      2  CD1 TRP A   1       9.759   8.308  25.005  0.00  0.00    +0.087 A 
ATOM      3  NE1 TRP A   1      10.527   7.295  25.470  0.00  0.00    -0.360 N 
ATOM      4  CE2 TRP A   1       9.677   6.401  26.004  0.00  0.00    +0.047 A 
ATOM      5  CZ2 TRP A   1      10.000   5.195  26.626  0.00  0.00    +0.026 A 
ATOM      6  CH2 TRP A   1       8.946   4.415  27.136  0.00  0.00    +0.002 A 
ATOM      7  CZ3 TRP A   1       7.609   4.854  27.017  0.00  0.00    +0.001 A 
ATOM      8  CE3 TRP A   1       7.313   6.075  26.386  0.00  0.00    +0.010 A 
ATOM      9  CD2 TRP A   1       8.378   6.824  25.886  0.00  0.00    +0.003 A 
ATOM     10  HE1 TRP A   1      11.568   7.233  25.433  0.00  0.00    +0.165 HD
ENDROOT
BRANCH   1  11
ATOM     11  CB  TRP A   1       7.255   8.953  24.936  0.00  0.00    +0.067 C 
BRANCH  11  12
ATOM     12  CA  TRP A   1       6.863   9.798  26.165  0.00  0.00    +0.165 C 
BRANCH  12  13
ATOM     13  N   TRP A   1       7.966   9.872  27.124  0.00  0.00    -0.318 NA
ATOM     14  H1  TRP A   1       7.618   9.551  28.058  0.00  0.00    +0.119 HD
ATOM     15  H2  TRP A   1       8.269  10.868  27.233  0.00  0.00    +0.119 HD
ENDBRANCH  12  13
BRANCH  12  16
ATOM     16  C   TRP A   1       5.641   9.240  26.842  0.00  0.00    +0.322 C 
ATOM     17  O   TRP A   1       5.492   9.359  28.088  0.00  0.00    -0.249 OA
BRANCH  16  18
ATOM     18  OXT TRP A   1       4.685   8.560  26.092  0.00  0.00    -0.479 OA
ATOM     19  HXT TRP A   1       3.815   9.009  25.831  0.00  0.00    +0.295 HD
ENDBRANCH  16  18
ENDBRANCH  12  16
ENDBRANCH  11  12
ENDBRANCH   1  11
TORSDOF 5
ENDMDL
MODEL 8
REMARK VINA RESULT:      -5.1     45.303     47.451
REMARK  Name = peptide_36_ARIFWCPELG
REMARK  5 active torsions:
REMARK  status: ('A' for Active; 'I' for Inactive)
REMARK    1  A    between atoms: N_1  and  CA_2
REMARK    2  A    between atoms: CA_2  and  CB_3
REMARK    3  A    between atoms: CA_2  and  C_13
REMARK    4  A    between atoms: CB_3  and  CG_4
REMARK    5  A    between atoms: C_13  and  OXT_15
REMARK                            x       y       z     vdW  Elec       q    Type
REMARK                         _______ _______ _______ _____ _____    ______ ____
ROOT
ATOM      1  CG  TRP A   1      -8.257  -0.580  48.166  0.00  0.00    -0.020 A 
ATOM      2  CD1 TRP A   1      -8.340   0.710  47.649  0.00  0.00    +0.087 A 
ATOM      3  NE1 TRP A   1      -9.622   1.014  47.344  0.00  0.00    -0.360 N 
ATOM      4  CE2 TRP A   1     -10.346  -0.076  47.652  0.00  0.00    +0.047 A 
ATOM      5  CZ2 TRP A   1     -11.720  -0.250  47.495  0.00  0.00    +0.026 A 
ATOM      6  CH2 TRP A   1     -12.273  -1.489  47.867  0.00  0.00    +0.002 A 
ATOM      7  CZ3 TRP A   1     -11.449  -2.516  48.378  0.00  0.00    +0.001 A 
ATOM      8  CE3 TRP A   1     -10.065  -2.313  48.524  0.00  0.00    +0.010 A 
ATOM      9  CD2 TRP A   1      -9.547  -1.072  48.152  0.00  0.00    +0.003 A 
ATOM     10  HE1 TRP A   1      -9.972   1.910  46.937  0.00  0.00    +0.165 HD
ENDROOT
BRANCH   1  11
ATOM     11  CB  TRP A   1      -7.003  -1.310  48.555  0.00  0.00    +0.067 C 
BRANCH  11  12
ATOM     12  CA  TRP A   1      -5.880  -1.101  47.519  0.00  0.00    +0.165 C 
BRANCH  12  13
ATOM     13  N   TRP A   1      -5.235  -2.371  47.181  0.00  0.00    -0.318 NA
ATOM     14  H1  TRP A   1      -5.163  -2.441  46.140  0.00  0.00    +0.119 HD
ATOM     15  H2  TRP A   1      -5.835  -3.165  47.504  0.00  0.00    +0.119 HD
ENDBRANCH  12  13
BRANCH  12  16
ATOM     16  C   TRP A   1      -4.849  -0.128  48.022  0.00  0.00    +0.322 C 
ATOM     17  O   TRP A   1      -3.881  -0.530  48.723  0.00  0.00    -0.249 OA
BRANCH  16  18
ATOM     18  OXT TRP A   1      -4.981   1.228  47.737  0.00  0.00    -0.479 OA
ATOM     19  HXT TRP A   1      -5.406   1.860  48.406  0.00  0.00    +0.295 HD
ENDBRANCH  16  18
ENDBRANCH  12  16
ENDBRANCH  11  12
ENDBRANCH   1  11
TORSDOF 5
ENDMDL
MODEL 9
REMARK VINA RESULT:      -5.1     21.394     22.927
REMARK  Name = peptide_36_ARIFWCPELG
REMARK  5 active torsions:
REMARK  status: ('A' for Active; 'I' for Inactive)
REMARK    1  A    between atoms: N_1  and  CA_2
REMARK    2  A    between atoms: CA_2  and  CB_3
REMARK    3  A    between atoms: CA_2  and  C_13
REMARK    4  A    between atoms: CB_3  and  CG_4
REMARK    5  A    between atoms: C_13  and  OXT_15
REMARK                            x       y       z     vdW  Elec       q    Type
REMARK                         _______ _______ _______ _____ _____    ______ ____
ROOT
ATOM      1  CG  TRP A   1       4.540  -1.959  24.824  0.00  0.00    -0.020 A 
ATOM      2  CD1 TRP A   1       5.616  -1.107  24.596  0.00  0.00    +0.087 A 
ATOM      3  NE1 TRP A   1       5.187   0.064  24.070  0.00  0.00    -0.360 N 
ATOM      4  CE2 TRP A   1       3.852  -0.049  23.954  0.00  0.00    +0.047 A 
ATOM      5  CZ2 TRP A   1       2.966   0.899  23.442  0.00  0.00    +0.026 A 
ATOM      6  CH2 TRP A   1       1.600   0.563  23.394  0.00  0.00    +0.002 A 
ATOM      7  CZ3 TRP A   1       1.157  -0.698  23.850  0.00  0.00    +0.001 A 
ATOM      8  CE3 TRP A   1       2.074  -1.635  24.359  0.00  0.00    +0.010 A 
ATOM      9  CD2 TRP A   1       3.420  -1.271  24.399  0.00  0.00    +0.003 A 
ATOM     10  HE1 TRP A   1       5.778   0.880  23.797  0.00  0.00    +0.165 HD
ENDROOT
BRANCH   1  11
ATOM     11  CB  TRP A   1       4.609  -3.373  25.329  0.00  0.00    +0.067 C 
BRANCH  11  12
ATOM     12  CA  TRP A   1       5.893  -3.622  26.145  0.00  0.00    +0.165 C 
BRANCH  12  13
ATOM     13  N   TRP A   1       6.413  -4.970  25.907  0.00  0.00    -0.318 NA
ATOM     14  H1  TRP A   1       5.624  -5.579  25.589  0.00  0.00    +0.119 HD
ATOM     15  H2  TRP A   1       6.771  -5.371  26.805  0.00  0.00    +0.119 HD
ENDBRANCH  12  13
BRANCH  12  16
ATOM     16  C   TRP A   1       5.651  -3.427  27.616  0.00  0.00    +0.322 C 
ATOM     17  O   TRP A   1       5.475  -4.420  28.371  0.00  0.00    -0.249 OA
BRANCH  16  18
ATOM     18  OXT TRP A   1       5.588  -2.139  28.141  0.00  0.00    -0.479 OA
ATOM     19  HXT TRP A   1       6.394  -1.722  28.592  0.00  0.00    +0.295 HD
ENDBRANCH  16  18
ENDBRANCH  12  16
ENDBRANCH  11  12
ENDBRANCH   1  11
TORSDOF 5
ENDMDL
