MODEL 1
REMARK VINA RESULT:      -5.0      0.000      0.000
REMARK  Name = peptide_29_GGDNCNHRGY
REMARK  6 active torsions:
REMARK  status: ('A' for Active; 'I' for Inactive)
REMARK    1  A    between atoms: N_1  and  CA_2
REMARK    2  A    between atoms: CA_2  and  CB_3
REMARK    3  A    between atoms: CA_2  and  C_11
REMARK    4  A    between atoms: CB_3  and  CG_4
REMARK    5  A    between atoms: CZ_7  and  OH_8
REMARK    6  A    between atoms: C_11  and  OXT_13
REMARK                            x       y       z     vdW  Elec       q    Type
REMARK                         _______ _______ _______ _____ _____    ______ ____
ROOT
ATOM      1  CB  TYR A   1      17.299   7.484   9.712  0.00  0.00    +0.065 C 
ENDROOT
BRANCH   1   2
ATOM      2  CG  TYR A   1      18.248   6.339   9.473  0.00  0.00    -0.045 A 
ATOM      3  CD1 TYR A   1      17.766   5.024   9.366  0.00  0.00    +0.007 A 
ATOM      4  CE1 TYR A   1      18.653   3.961   9.173  0.00  0.00    +0.045 A 
ATOM      5  CZ  TYR A   1      20.029   4.198   9.093  0.00  0.00    +0.117 A 
ATOM      6  CE2 TYR A   1      20.517   5.506   9.209  0.00  0.00    +0.045 A 
ATOM      7  CD2 TYR A   1      19.632   6.571   9.402  0.00  0.00    +0.007 A 
BRANCH   5   8
ATOM      8  OH  TYR A   1      20.902   3.129   8.900  0.00  0.00    -0.507 OA
ATOM      9  HH  TYR A   1      21.568   2.855   9.613  0.00  0.00    +0.292 HD
ENDBRANCH   5   8
ENDBRANCH   1   2
BRANCH   1  10
ATOM     10  CA  TYR A   1      16.198   7.099  10.716  0.00  0.00    +0.165 C 
BRANCH  10  11
ATOM     11  N   TYR A   1      15.087   8.053  10.656  0.00  0.00    -0.318 NA
ATOM     12  H1  TYR A   1      15.117   8.570   9.747  0.00  0.00    +0.119 HD
ATOM     13  H2  TYR A   1      15.207   8.756  11.421  0.00  0.00    +0.119 HD
ENDBRANCH  10  11
BRANCH  10  14
ATOM     14  C   TYR A   1      16.761   7.021  12.110  0.00  0.00    +0.322 C 
ATOM     15  O   TYR A   1      17.515   7.932  12.546  0.00  0.00    -0.249 OA
BRANCH  14  16
ATOM     16  OXT TYR A   1      16.448   5.934  12.922  0.00  0.00    -0.479 OA
ATOM     17  HXT TYR A   1      16.969   5.067  12.853  0.00  0.00    +0.295 HD
ENDBRANCH  14  16
ENDBRANCH  10  14
ENDBRANCH   1  10
TORSDOF 6
ENDMDL
MODEL 2
REMARK VINA RESULT:      -4.9      1.556      1.683
REMARK  Name = peptide_29_GGDNCNHRGY
REMARK  6 active torsions:
REMARK  status: ('A' for Active; 'I' for Inactive)
REMARK    1  A    between atoms: N_1  and  CA_2
REMARK    2  A    between atoms: CA_2  and  CB_3
REMARK    3  A    between atoms: CA_2  and  C_11
REMARK    4  A    between atoms: CB_3  and  CG_4
REMARK    5  A    between atoms: CZ_7  and  OH_8
REMARK    6  A    between atoms: C_11  and  OXT_13
REMARK                            x       y       z     vdW  Elec       q    Type
REMARK                         _______ _______ _______ _____ _____    ______ ____
ROOT
ATOM      1  CB  TYR A   1      16.387   6.558  10.604  0.00  0.00    +0.065 C 
ENDROOT
BRANCH   1   2
ATOM      2  CG  TYR A   1      17.565   5.863   9.972  0.00  0.00    -0.045 A 
ATOM      3  CD1 TYR A   1      17.464   4.525   9.556  0.00  0.00    +0.007 A 
ATOM      4  CE1 TYR A   1      18.567   3.876   8.996  0.00  0.00    +0.045 A 
ATOM      5  CZ  TYR A   1      19.784   4.551   8.853  0.00  0.00    +0.117 A 
ATOM      6  CE2 TYR A   1      19.893   5.883   9.275  0.00  0.00    +0.045 A 
ATOM      7  CD2 TYR A   1      18.791   6.535   9.836  0.00  0.00    +0.007 A 
BRANCH   5   8
ATOM      8  OH  TYR A   1      20.876   3.891   8.293  0.00  0.00    -0.507 OA
ATOM      9  HH  TYR A   1      21.258   3.052   8.712  0.00  0.00    +0.292 HD
ENDBRANCH   5   8
ENDBRANCH   1   2
BRANCH   1  10
ATOM     10  CA  TYR A   1      16.730   7.074  12.013  0.00  0.00    +0.165 C 
BRANCH  10  11
ATOM     11  N   TYR A   1      16.505   6.029  13.015  0.00  0.00    -0.318 NA
ATOM     12  H1  TYR A   1      16.902   5.123  12.674  0.00  0.00    +0.119 HD
ATOM     13  H2  TYR A   1      15.474   5.894  13.134  0.00  0.00    +0.119 HD
ENDBRANCH  10  11
BRANCH  10  14
ATOM     14  C   TYR A   1      15.925   8.305  12.334  0.00  0.00    +0.322 C 
ATOM     15  O   TYR A   1      15.648   9.140  11.431  0.00  0.00    -0.249 OA
BRANCH  14  16
ATOM     16  OXT TYR A   1      15.486   8.524  13.637  0.00  0.00    -0.479 OA
ATOM     17  HXT TYR A   1      14.729   7.978  14.029  0.00  0.00    +0.295 HD
ENDBRANCH  14  16
ENDBRANCH  10  14
ENDBRANCH   1  10
TORSDOF 6
ENDMDL
MODEL 3
REMARK VINA RESULT:      -4.9     46.254     46.959
REMARK  Name = peptide_29_GGDNCNHRGY
REMARK  6 active torsions:
REMARK  status: ('A' for Active; 'I' for Inactive)
REMARK    1  A    between atoms: N_1  and  CA_2
REMARK    2  A    between atoms: CA_2  and  CB_3
REMARK    3  A    between atoms: CA_2  and  C_11
REMARK    4  A    between atoms: CB_3  and  CG_4
REMARK    5  A    between atoms: CZ_7  and  OH_8
REMARK    6  A    between atoms: C_11  and  OXT_13
REMARK                            x       y       z     vdW  Elec       q    Type
REMARK                         _______ _______ _______ _____ _____    ______ ____
ROOT
ATOM      1  CB  TYR A   1     -11.375  -1.784  46.967  0.00  0.00    +0.065 C 
ENDROOT
BRANCH   1   2
ATOM      2  CG  TYR A   1     -10.310  -0.806  47.393  0.00  0.00    -0.045 A 
ATOM      3  CD1 TYR A   1     -10.623   0.550  47.581  0.00  0.00    +0.007 A 
ATOM      4  CE1 TYR A   1      -9.627   1.459  47.949  0.00  0.00    +0.045 A 
ATOM      5  CZ  TYR A   1      -8.308   1.026  48.125  0.00  0.00    +0.117 A 
ATOM      6  CE2 TYR A   1      -7.989  -0.324  47.929  0.00  0.00    +0.045 A 
ATOM      7  CD2 TYR A   1      -8.983  -1.235  47.561  0.00  0.00    +0.007 A 
BRANCH   5   8
ATOM      8  OH  TYR A   1      -7.325   1.943  48.491  0.00  0.00    -0.507 OA
ATOM      9  HH  TYR A   1      -7.009   2.663  47.852  0.00  0.00    +0.292 HD
ENDBRANCH   5   8
ENDBRANCH   1   2
BRANCH   1  10
ATOM     10  CA  TYR A   1     -11.168  -2.238  45.511  0.00  0.00    +0.165 C 
BRANCH  10  11
ATOM     11  N   TYR A   1     -11.561  -1.179  44.578  0.00  0.00    -0.318 NA
ATOM     12  H1  TYR A   1     -11.167  -0.264  44.899  0.00  0.00    +0.119 HD
ATOM     13  H2  TYR A   1     -12.604  -1.092  44.589  0.00  0.00    +0.119 HD
ENDBRANCH  10  11
BRANCH  10  14
ATOM     14  C   TYR A   1     -11.939  -3.503  45.240  0.00  0.00    +0.322 C 
ATOM     15  O   TYR A   1     -11.332  -4.592  45.056  0.00  0.00    -0.249 OA
BRANCH  14  16
ATOM     16  OXT TYR A   1     -13.329  -3.468  45.188  0.00  0.00    -0.479 OA
ATOM     17  HXT TYR A   1     -13.869  -3.106  45.965  0.00  0.00    +0.295 HD
ENDBRANCH  14  16
ENDBRANCH  10  14
ENDBRANCH   1  10
TORSDOF 6
ENDMDL
MODEL 4
REMARK VINA RESULT:      -4.8      2.220      2.993
REMARK  Name = peptide_29_GGDNCNHRGY
REMARK  6 active torsions:
REMARK  status: ('A' for Active; 'I' for Inactive)
REMARK    1  A    between atoms: N_1  and  CA_2
REMARK    2  A    between atoms: CA_2  and  CB_3
REMARK    3  A    between atoms: CA_2  and  C_11
REMARK    4  A    between atoms: CB_3  and  CG_4
REMARK    5  A    between atoms: CZ_7  and  OH_8
REMARK    6  A    between atoms: C_11  and  OXT_13
REMARK                            x       y       z     vdW  Elec       q    Type
REMARK                         _______ _______ _______ _____ _____    ______ ____
ROOT
ATOM      1  CB  TYR A   1      17.840   5.266   9.241  0.00  0.00    +0.065 C 
ENDROOT
BRANCH   1   2
ATOM      2  CG  TYR A   1      19.346   5.265   9.270  0.00  0.00    -0.045 A 
ATOM      3  CD1 TYR A   1      20.057   6.473   9.360  0.00  0.00    +0.007 A 
ATOM      4  CE1 TYR A   1      21.455   6.470   9.359  0.00  0.00    +0.045 A 
ATOM      5  CZ  TYR A   1      22.156   5.264   9.259  0.00  0.00    +0.117 A 
ATOM      6  CE2 TYR A   1      21.453   4.057   9.160  0.00  0.00    +0.045 A 
ATOM      7  CD2 TYR A   1      20.055   4.057   9.161  0.00  0.00    +0.007 A 
BRANCH   5   8
ATOM      8  OH  TYR A   1      23.550   5.277   9.259  0.00  0.00    -0.507 OA
ATOM      9  HH  TYR A   1      24.074   5.756   8.537  0.00  0.00    +0.292 HD
ENDBRANCH   5   8
ENDBRANCH   1   2
BRANCH   1  10
ATOM     10  CA  TYR A   1      17.264   6.425  10.073  0.00  0.00    +0.165 C 
BRANCH  10  11
ATOM     11  N   TYR A   1      16.825   5.949  11.388  0.00  0.00    -0.318 NA
ATOM     12  H1  TYR A   1      17.067   6.660  12.117  0.00  0.00    +0.119 HD
ATOM     13  H2  TYR A   1      17.347   5.072  11.619  0.00  0.00    +0.119 HD
ENDBRANCH  10  11
BRANCH  10  14
ATOM     14  C   TYR A   1      16.129   7.089   9.339  0.00  0.00    +0.322 C 
ATOM     15  O   TYR A   1      14.941   6.712   9.526  0.00  0.00    -0.249 OA
BRANCH  14  16
ATOM     16  OXT TYR A   1      16.395   8.122   8.445  0.00  0.00    -0.479 OA
ATOM     17  HXT TYR A   1      16.213   9.086   8.697  0.00  0.00    +0.295 HD
ENDBRANCH  14  16
ENDBRANCH  10  14
ENDBRANCH   1  10
TORSDOF 6
ENDMDL
MODEL 5
REMARK VINA RESULT:      -4.8      2.090      2.253
REMARK  Name = peptide_29_GGDNCNHRGY
REMARK  6 active torsions:
REMARK  status: ('A' for Active; 'I' for Inactive)
REMARK    1  A    between atoms: N_1  and  CA_2
REMARK    2  A    between atoms: CA_2  and  CB_3
REMARK    3  A    between atoms: CA_2  and  C_11
REMARK    4  A    between atoms: CB_3  and  CG_4
REMARK    5  A    between atoms: CZ_7  and  OH_8
REMARK    6  A    between atoms: C_11  and  OXT_13
REMARK                            x       y       z     vdW  Elec       q    Type
REMARK                         _______ _______ _______ _____ _____    ______ ____
ROOT
ATOM      1  CB  TYR A   1      17.209   7.320  10.114  0.00  0.00    +0.065 C 
ENDROOT
BRANCH   1   2
ATOM      2  CG  TYR A   1      18.195   6.247   9.732  0.00  0.00    -0.045 A 
ATOM      3  CD1 TYR A   1      17.781   4.909   9.614  0.00  0.00    +0.007 A 
ATOM      4  CE1 TYR A   1      18.704   3.912   9.285  0.00  0.00    +0.045 A 
ATOM      5  CZ  TYR A   1      20.049   4.238   9.081  0.00  0.00    +0.117 A 
ATOM      6  CE2 TYR A   1      20.469   5.568   9.207  0.00  0.00    +0.045 A 
ATOM      7  CD2 TYR A   1      19.548   6.567   9.535  0.00  0.00    +0.007 A 
BRANCH   5   8
ATOM      8  OH  TYR A   1      20.958   3.233   8.755  0.00  0.00    -0.507 OA
ATOM      9  HH  TYR A   1      20.772   2.573   8.008  0.00  0.00    +0.292 HD
ENDBRANCH   5   8
ENDBRANCH   1   2
BRANCH   1  10
ATOM     10  CA  TYR A   1      16.267   7.658   8.945  0.00  0.00    +0.165 C 
BRANCH  10  11
ATOM     11  N   TYR A   1      16.784   8.791   8.175  0.00  0.00    -0.318 NA
ATOM     12  H1  TYR A   1      16.437   8.733   7.189  0.00  0.00    +0.119 HD
ATOM     13  H2  TYR A   1      17.829   8.727   8.143  0.00  0.00    +0.119 HD
ENDBRANCH  10  11
BRANCH  10  14
ATOM     14  C   TYR A   1      14.879   7.946   9.453  0.00  0.00    +0.322 C 
ATOM     15  O   TYR A   1      14.697   8.292  10.651  0.00  0.00    -0.249 OA
BRANCH  14  16
ATOM     16  OXT TYR A   1      13.790   7.827   8.595  0.00  0.00    -0.479 OA
ATOM     17  HXT TYR A   1      12.869   7.599   8.951  0.00  0.00    +0.295 HD
ENDBRANCH  14  16
ENDBRANCH  10  14
ENDBRANCH   1  10
TORSDOF 6
ENDMDL
MODEL 6
REMARK VINA RESULT:      -4.8     46.485     48.103
REMARK  Name = peptide_29_GGDNCNHRGY
REMARK  6 active torsions:
REMARK  status: ('A' for Active; 'I' for Inactive)
REMARK    1  A    between atoms: N_1  and  CA_2
REMARK    2  A    between atoms: CA_2  and  CB_3
REMARK    3  A    between atoms: CA_2  and  C_11
REMARK    4  A    between atoms: CB_3  and  CG_4
REMARK    5  A    between atoms: CZ_7  and  OH_8
REMARK    6  A    between atoms: C_11  and  OXT_13
REMARK                            x       y       z     vdW  Elec       q    Type
REMARK                         _______ _______ _______ _____ _____    ______ ____
ROOT
ATOM      1  CB  TYR A   1     -11.056  -2.066  47.278  0.00  0.00    +0.065 C 
ENDROOT
BRANCH   1   2
ATOM      2  CG  TYR A   1     -10.052  -0.974  47.542  0.00  0.00    -0.045 A 
ATOM      3  CD1 TYR A   1      -8.694  -1.283  47.726  0.00  0.00    +0.007 A 
ATOM      4  CE1 TYR A   1      -7.770  -0.270  47.998  0.00  0.00    +0.045 A 
ATOM      5  CZ  TYR A   1      -8.193   1.060  48.098  0.00  0.00    +0.117 A 
ATOM      6  CE2 TYR A   1      -9.547   1.373  47.925  0.00  0.00    +0.045 A 
ATOM      7  CD2 TYR A   1     -10.473   0.362  47.652  0.00  0.00    +0.007 A 
BRANCH   5   8
ATOM      8  OH  TYR A   1      -7.261   2.059  48.370  0.00  0.00    -0.507 OA
ATOM      9  HH  TYR A   1      -7.060   2.351  49.319  0.00  0.00    +0.292 HD
ENDBRANCH   5   8
ENDBRANCH   1   2
BRANCH   1  10
ATOM     10  CA  TYR A   1     -11.921  -2.344  48.520  0.00  0.00    +0.165 C 
BRANCH  10  11
ATOM     11  N   TYR A   1     -11.325  -3.402  49.340  0.00  0.00    -0.318 NA
ATOM     12  H1  TYR A   1     -11.724  -4.328  49.061  0.00  0.00    +0.119 HD
ATOM     13  H2  TYR A   1     -11.584  -3.237  50.340  0.00  0.00    +0.119 HD
ENDBRANCH  10  11
BRANCH  10  14
ATOM     14  C   TYR A   1     -13.324  -2.708  48.114  0.00  0.00    +0.322 C 
ATOM     15  O   TYR A   1     -13.547  -3.233  46.990  0.00  0.00    -0.249 OA
BRANCH  14  16
ATOM     16  OXT TYR A   1     -14.382  -2.462  48.984  0.00  0.00    -0.479 OA
ATOM     17  HXT TYR A   1     -14.351  -2.784  49.944  0.00  0.00    +0.295 HD
ENDBRANCH  14  16
ENDBRANCH  10  14
ENDBRANCH   1  10
TORSDOF 6
ENDMDL
MODEL 7
REMARK VINA RESULT:      -4.7      4.088      5.923
REMARK  Name = peptide_29_GGDNCNHRGY
REMARK  6 active torsions:
REMARK  status: ('A' for Active; 'I' for Inactive)
REMARK    1  A    between atoms: N_1  and  CA_2
REMARK    2  A    between atoms: CA_2  and  CB_3
REMARK    3  A    between atoms: CA_2  and  C_11
REMARK    4  A    between atoms: CB_3  and  CG_4
REMARK    5  A    between atoms: CZ_7  and  OH_8
REMARK    6  A    between atoms: C_11  and  OXT_13
REMARK                            x       y       z     vdW  Elec       q    Type
REMARK                         _______ _______ _______ _____ _____    ______ ____
ROOT
ATOM      1  CB  TYR A   1      22.566   7.470   8.543  0.00  0.00    +0.065 C 
ENDROOT
BRANCH   1   2
ATOM      2  CG  TYR A   1      21.601   6.340   8.794  0.00  0.00    -0.045 A 
ATOM      3  CD1 TYR A   1      22.011   5.005   8.640  0.00  0.00    +0.007 A 
ATOM      4  CE1 TYR A   1      21.106   3.961   8.847  0.00  0.00    +0.045 A 
ATOM      5  CZ  TYR A   1      19.781   4.238   9.202  0.00  0.00    +0.117 A 
ATOM      6  CE2 TYR A   1      19.364   5.567   9.348  0.00  0.00    +0.045 A 
ATOM      7  CD2 TYR A   1      20.268   6.614   9.141  0.00  0.00    +0.007 A 
BRANCH   5   8
ATOM      8  OH  TYR A   1      18.889   3.186   9.405  0.00  0.00    -0.507 OA
ATOM      9  HH  TYR A   1      19.066   2.263   9.027  0.00  0.00    +0.292 HD
ENDBRANCH   5   8
ENDBRANCH   1   2
BRANCH   1  10
ATOM     10  CA  TYR A   1      23.594   7.592   9.681  0.00  0.00    +0.165 C 
BRANCH  10  11
ATOM     11  N   TYR A   1      23.272   8.726  10.550  0.00  0.00    -0.318 NA
ATOM     12  H1  TYR A   1      22.977   9.543   9.966  0.00  0.00    +0.119 HD
ATOM     13  H2  TYR A   1      24.136   9.008  11.069  0.00  0.00    +0.119 HD
ENDBRANCH  10  11
BRANCH  10  14
ATOM     14  C   TYR A   1      24.986   7.726   9.122  0.00  0.00    +0.322 C 
ATOM     15  O   TYR A   1      25.162   8.105   7.933  0.00  0.00    -0.249 OA
BRANCH  14  16
ATOM     16  OXT TYR A   1      26.084   7.426   9.922  0.00  0.00    -0.479 OA
ATOM     17  HXT TYR A   1      25.992   6.809  10.721  0.00  0.00    +0.295 HD
ENDBRANCH  14  16
ENDBRANCH  10  14
ENDBRANCH   1  10
TORSDOF 6
ENDMDL
MODEL 8
REMARK VINA RESULT:      -4.7     20.558     22.306
REMARK  Name = peptide_29_GGDNCNHRGY
REMARK  6 active torsions:
REMARK  status: ('A' for Active; 'I' for Inactive)
REMARK    1  A    between atoms: N_1  and  CA_2
REMARK    2  A    between atoms: CA_2  and  CB_3
REMARK    3  A    between atoms: CA_2  and  C_11
REMARK    4  A    between atoms: CB_3  and  CG_4
REMARK    5  A    between atoms: CZ_7  and  OH_8
REMARK    6  A    between atoms: C_11  and  OXT_13
REMARK                            x       y       z     vdW  Elec       q    Type
REMARK                         _______ _______ _______ _____ _____    ______ ____
ROOT
ATOM      1  CB  TYR A   1       5.526  -3.796  25.591  0.00  0.00    +0.065 C 
ENDROOT
BRANCH   1   2
ATOM      2  CG  TYR A   1       4.974  -2.680  24.743  0.00  0.00    -0.045 A 
ATOM      3  CD1 TYR A   1       5.423  -1.361  24.920  0.00  0.00    +0.007 A 
ATOM      4  CE1 TYR A   1       4.889  -0.324  24.150  0.00  0.00    +0.045 A 
ATOM      5  CZ  TYR A   1       3.895  -0.592  23.202  0.00  0.00    +0.117 A 
ATOM      6  CE2 TYR A   1       3.436  -1.904  23.028  0.00  0.00    +0.045 A 
ATOM      7  CD2 TYR A   1       3.969  -2.943  23.797  0.00  0.00    +0.007 A 
BRANCH   5   8
ATOM      8  OH  TYR A   1       3.371   0.452  22.441  0.00  0.00    -0.507 OA
ATOM      9  HH  TYR A   1       2.379   0.514  22.242  0.00  0.00    +0.292 HD
ENDBRANCH   5   8
ENDBRANCH   1   2
BRANCH   1  10
ATOM     10  CA  TYR A   1       5.849  -3.310  27.015  0.00  0.00    +0.165 C 
BRANCH  10  11
ATOM     11  N   TYR A   1       7.211  -3.692  27.396  0.00  0.00    -0.318 NA
ATOM     12  H1  TYR A   1       7.702  -2.870  27.818  0.00  0.00    +0.119 HD
ATOM     13  H2  TYR A   1       7.738  -3.963  26.533  0.00  0.00    +0.119 HD
ENDBRANCH  10  11
BRANCH  10  14
ATOM     14  C   TYR A   1       4.847  -3.853  27.998  0.00  0.00    +0.322 C 
ATOM     15  O   TYR A   1       5.214  -4.631  28.919  0.00  0.00    -0.249 OA
BRANCH  14  16
ATOM     16  OXT TYR A   1       3.506  -3.497  27.887  0.00  0.00    -0.479 OA
ATOM     17  HXT TYR A   1       3.205  -2.816  27.199  0.00  0.00    +0.295 HD
ENDBRANCH  14  16
ENDBRANCH  10  14
ENDBRANCH   1  10
TORSDOF 6
ENDMDL
MODEL 9
REMARK VINA RESULT:      -4.5     20.865     22.361
REMARK  Name = peptide_29_GGDNCNHRGY
REMARK  6 active torsions:
REMARK  status: ('A' for Active; 'I' for Inactive)
REMARK    1  A    between atoms: N_1  and  CA_2
REMARK    2  A    between atoms: CA_2  and  CB_3
REMARK    3  A    between atoms: CA_2  and  C_11
REMARK    4  A    between atoms: CB_3  and  CG_4
REMARK    5  A    between atoms: CZ_7  and  OH_8
REMARK    6  A    between atoms: C_11  and  OXT_13
REMARK                            x       y       z     vdW  Elec       q    Type
REMARK                         _______ _______ _______ _____ _____    ______ ____
ROOT
ATOM      1  CB  TYR A   1       4.457  -3.799  24.800  0.00  0.00    +0.065 C 
ENDROOT
BRANCH   1   2
ATOM      2  CG  TYR A   1       4.038  -2.374  24.545  0.00  0.00    -0.045 A 
ATOM      3  CD1 TYR A   1       2.709  -2.072  24.207  0.00  0.00    +0.007 A 
ATOM      4  CE1 TYR A   1       2.330  -0.752  23.945  0.00  0.00    +0.045 A 
ATOM      5  CZ  TYR A   1       3.276   0.277  24.009  0.00  0.00    +0.117 A 
ATOM      6  CE2 TYR A   1       4.605  -0.020  24.337  0.00  0.00    +0.045 A 
ATOM      7  CD2 TYR A   1       4.986  -1.339  24.600  0.00  0.00    +0.007 A 
BRANCH   5   8
ATOM      8  OH  TYR A   1       2.884   1.589  23.745  0.00  0.00    -0.507 OA
ATOM      9  HH  TYR A   1       1.919   1.822  23.545  0.00  0.00    +0.292 HD
ENDBRANCH   5   8
ENDBRANCH   1   2
BRANCH   1  10
ATOM     10  CA  TYR A   1       5.678  -3.866  25.733  0.00  0.00    +0.165 C 
BRANCH  10  11
ATOM     11  N   TYR A   1       6.569  -4.961  25.341  0.00  0.00    -0.318 NA
ATOM     12  H1  TYR A   1       6.137  -5.877  25.605  0.00  0.00    +0.119 HD
ATOM     13  H2  TYR A   1       7.465  -4.872  25.875  0.00  0.00    +0.119 HD
ENDBRANCH  10  11
BRANCH  10  14
ATOM     14  C   TYR A   1       5.239  -4.020  27.165  0.00  0.00    +0.322 C 
ATOM     15  O   TYR A   1       5.047  -5.166  27.654  0.00  0.00    -0.249 OA
BRANCH  14  16
ATOM     16  OXT TYR A   1       5.042  -2.890  27.954  0.00  0.00    -0.479 OA
ATOM     17  HXT TYR A   1       4.410  -2.913  28.745  0.00  0.00    +0.295 HD
ENDBRANCH  14  16
ENDBRANCH  10  14
ENDBRANCH   1  10
TORSDOF 6
ENDMDL
