MODEL 1
REMARK VINA RESULT:      -4.9      0.000      0.000
REMARK  Name = peptide_34_DHKTFFKIYF
REMARK  5 active torsions:
REMARK  status: ('A' for Active; 'I' for Inactive)
REMARK    1  A    between atoms: N_1  and  CA_2
REMARK    2  A    between atoms: CA_2  and  CB_3
REMARK    3  A    between atoms: CA_2  and  C_10
REMARK    4  A    between atoms: CB_3  and  CG_4
REMARK    5  A    between atoms: C_10  and  OXT_12
REMARK                            x       y       z     vdW  Elec       q    Type
REMARK                         _______ _______ _______ _____ _____    ______ ____
ROOT
ATOM      1  CA  PHE A   1      -6.631  -0.414  47.774  0.00  0.00    +0.165 C 
ENDROOT
BRANCH   1   2
ATOM      2  N   PHE A   1      -5.434  -1.002  47.168  0.00  0.00    -0.318 NA
ATOM      3  H1  PHE A   1      -5.363  -0.669  46.179  0.00  0.00    +0.119 HD
ATOM      4  H2  PHE A   1      -5.532  -2.043  47.139  0.00  0.00    +0.119 HD
ENDBRANCH   1   2
BRANCH   1   5
ATOM      5  C   PHE A   1      -6.224   0.481  48.912  0.00  0.00    +0.322 C 
ATOM      6  O   PHE A   1      -5.372   0.086  49.752  0.00  0.00    -0.249 OA
BRANCH   5   7
ATOM      7  OXT PHE A   1      -6.776   1.754  49.030  0.00  0.00    -0.479 OA
ATOM      8  HXT PHE A   1      -7.565   2.032  48.459  0.00  0.00    +0.295 HD
ENDBRANCH   5   7
ENDBRANCH   1   5
BRANCH   1   9
ATOM      9  CB  PHE A   1      -7.605  -1.513  48.248  0.00  0.00    +0.065 C 
BRANCH   9  10
ATOM     10  CG  PHE A   1      -9.027  -1.208  47.848  0.00  0.00    -0.045 A 
ATOM     11  CD1 PHE A   1      -9.643  -0.021  48.279  0.00  0.00    +0.003 A 
ATOM     12  CE1 PHE A   1     -10.971   0.248  47.934  0.00  0.00    +0.000 A 
ATOM     13  CZ  PHE A   1     -11.694  -0.667  47.164  0.00  0.00    +0.000 A 
ATOM     14  CE2 PHE A   1     -11.092  -1.854  46.740  0.00  0.00    +0.000 A 
ATOM     15  CD2 PHE A   1      -9.765  -2.127  47.082  0.00  0.00    +0.003 A 
ENDBRANCH   9  10
ENDBRANCH   1   9
TORSDOF 5
ENDMDL
MODEL 2
REMARK VINA RESULT:      -4.9     18.992     21.129
REMARK  Name = peptide_34_DHKTFFKIYF
REMARK  5 active torsions:
REMARK  status: ('A' for Active; 'I' for Inactive)
REMARK    1  A    between atoms: N_1  and  CA_2
REMARK    2  A    between atoms: CA_2  and  CB_3
REMARK    3  A    between atoms: CA_2  and  C_10
REMARK    4  A    between atoms: CB_3  and  CG_4
REMARK    5  A    between atoms: C_10  and  OXT_12
REMARK                            x       y       z     vdW  Elec       q    Type
REMARK                         _______ _______ _______ _____ _____    ______ ____
ROOT
ATOM      1  CA  PHE A   1       9.682  -5.835  42.887  0.00  0.00    +0.165 C 
ENDROOT
BRANCH   1   2
ATOM      2  N   PHE A   1       8.794  -6.235  41.793  0.00  0.00    -0.318 NA
ATOM      3  H1  PHE A   1       7.912  -5.676  41.858  0.00  0.00    +0.119 HD
ATOM      4  H2  PHE A   1       8.532  -7.241  41.905  0.00  0.00    +0.119 HD
ENDBRANCH   1   2
BRANCH   1   5
ATOM      5  C   PHE A   1       8.959  -5.990  44.196  0.00  0.00    +0.322 C 
ATOM      6  O   PHE A   1       8.605  -7.133  44.591  0.00  0.00    -0.249 OA
BRANCH   5   7
ATOM      7  OXT PHE A   1       8.693  -4.873  44.983  0.00  0.00    -0.479 OA
ATOM      8  HXT PHE A   1       8.854  -3.937  44.627  0.00  0.00    +0.295 HD
ENDBRANCH   5   7
ENDBRANCH   1   5
BRANCH   1   9
ATOM      9  CB  PHE A   1      10.181  -4.388  42.692  0.00  0.00    +0.065 C 
BRANCH   9  10
ATOM     10  CG  PHE A   1      11.608  -4.352  42.206  0.00  0.00    -0.045 A 
ATOM     11  CD1 PHE A   1      11.992  -3.439  41.209  0.00  0.00    +0.003 A 
ATOM     12  CE1 PHE A   1      13.309  -3.425  40.737  0.00  0.00    +0.000 A 
ATOM     13  CZ  PHE A   1      14.247  -4.324  41.250  0.00  0.00    +0.000 A 
ATOM     14  CE2 PHE A   1      13.870  -5.243  42.234  0.00  0.00    +0.000 A 
ATOM     15  CD2 PHE A   1      12.556  -5.260  42.709  0.00  0.00    +0.003 A 
ENDBRANCH   9  10
ENDBRANCH   1   9
TORSDOF 5
ENDMDL
MODEL 3
REMARK VINA RESULT:      -4.9     46.191     47.285
REMARK  Name = peptide_34_DHKTFFKIYF
REMARK  5 active torsions:
REMARK  status: ('A' for Active; 'I' for Inactive)
REMARK    1  A    between atoms: N_1  and  CA_2
REMARK    2  A    between atoms: CA_2  and  CB_3
REMARK    3  A    between atoms: CA_2  and  C_10
REMARK    4  A    between atoms: CB_3  and  CG_4
REMARK    5  A    between atoms: C_10  and  OXT_12
REMARK                            x       y       z     vdW  Elec       q    Type
REMARK                         _______ _______ _______ _____ _____    ______ ____
ROOT
ATOM      1  CA  PHE A   1      19.375   4.754   9.067  0.00  0.00    +0.165 C 
ENDROOT
BRANCH   1   2
ATOM      2  N   PHE A   1      18.844   3.870  10.107  0.00  0.00    -0.318 NA
ATOM      3  H1  PHE A   1      17.818   4.048  10.206  0.00  0.00    +0.119 HD
ATOM      4  H2  PHE A   1      19.289   4.102  11.025  0.00  0.00    +0.119 HD
ENDBRANCH   1   2
BRANCH   1   5
ATOM      5  C   PHE A   1      20.757   4.299   8.686  0.00  0.00    +0.322 C 
ATOM      6  O   PHE A   1      21.561   5.106   8.147  0.00  0.00    -0.249 OA
BRANCH   5   7
ATOM      7  OXT PHE A   1      21.156   2.991   8.943  0.00  0.00    -0.479 OA
ATOM      8  HXT PHE A   1      21.202   2.306   8.197  0.00  0.00    +0.295 HD
ENDBRANCH   5   7
ENDBRANCH   1   5
BRANCH   1   9
ATOM      9  CB  PHE A   1      19.381   6.222   9.542  0.00  0.00    +0.065 C 
BRANCH   9  10
ATOM     10  CG  PHE A   1      17.993   6.701   9.889  0.00  0.00    -0.045 A 
ATOM     11  CD1 PHE A   1      17.718   7.197  11.175  0.00  0.00    +0.003 A 
ATOM     12  CE1 PHE A   1      16.425   7.613  11.507  0.00  0.00    +0.000 A 
ATOM     13  CZ  PHE A   1      15.398   7.531  10.562  0.00  0.00    +0.000 A 
ATOM     14  CE2 PHE A   1      15.661   7.029   9.285  0.00  0.00    +0.000 A 
ATOM     15  CD2 PHE A   1      16.953   6.612   8.949  0.00  0.00    +0.003 A 
ENDBRANCH   9  10
ENDBRANCH   1   9
TORSDOF 5
ENDMDL
MODEL 4
REMARK VINA RESULT:      -4.8     46.538     47.808
REMARK  Name = peptide_34_DHKTFFKIYF
REMARK  5 active torsions:
REMARK  status: ('A' for Active; 'I' for Inactive)
REMARK    1  A    between atoms: N_1  and  CA_2
REMARK    2  A    between atoms: CA_2  and  CB_3
REMARK    3  A    between atoms: CA_2  and  C_10
REMARK    4  A    between atoms: CB_3  and  CG_4
REMARK    5  A    between atoms: C_10  and  OXT_12
REMARK                            x       y       z     vdW  Elec       q    Type
REMARK                         _______ _______ _______ _____ _____    ______ ____
ROOT
ATOM      1  CA  PHE A   1      17.340   6.281  10.155  0.00  0.00    +0.165 C 
ENDROOT
BRANCH   1   2
ATOM      2  N   PHE A   1      16.778   5.892  11.451  0.00  0.00    -0.318 NA
ATOM      3  H1  PHE A   1      17.413   6.238  12.207  0.00  0.00    +0.119 HD
ATOM      4  H2  PHE A   1      16.751   4.849  11.521  0.00  0.00    +0.119 HD
ENDBRANCH   1   2
BRANCH   1   5
ATOM      5  C   PHE A   1      16.263   6.906   9.313  0.00  0.00    +0.322 C 
ATOM      6  O   PHE A   1      15.050   6.664   9.557  0.00  0.00    -0.249 OA
BRANCH   5   7
ATOM      7  OXT PHE A   1      16.601   7.768   8.273  0.00  0.00    -0.479 OA
ATOM      8  HXT PHE A   1      16.595   8.772   8.408  0.00  0.00    +0.295 HD
ENDBRANCH   5   7
ENDBRANCH   1   5
BRANCH   1   9
ATOM      9  CB  PHE A   1      17.972   5.067   9.442  0.00  0.00    +0.065 C 
BRANCH   9  10
ATOM     10  CG  PHE A   1      19.466   5.220   9.299  0.00  0.00    -0.045 A 
ATOM     11  CD1 PHE A   1      20.288   4.083   9.212  0.00  0.00    +0.003 A 
ATOM     12  CE1 PHE A   1      21.675   4.224   9.110  0.00  0.00    +0.000 A 
ATOM     13  CZ  PHE A   1      22.251   5.498   9.100  0.00  0.00    +0.000 A 
ATOM     14  CE2 PHE A   1      21.442   6.633   9.196  0.00  0.00    +0.000 A 
ATOM     15  CD2 PHE A   1      20.054   6.496   9.298  0.00  0.00    +0.003 A 
ENDBRANCH   9  10
ENDBRANCH   1   9
TORSDOF 5
ENDMDL
MODEL 5
REMARK VINA RESULT:      -4.8     47.794     49.072
REMARK  Name = peptide_34_DHKTFFKIYF
REMARK  5 active torsions:
REMARK  status: ('A' for Active; 'I' for Inactive)
REMARK    1  A    between atoms: N_1  and  CA_2
REMARK    2  A    between atoms: CA_2  and  CB_3
REMARK    3  A    between atoms: CA_2  and  C_10
REMARK    4  A    between atoms: CB_3  and  CG_4
REMARK    5  A    between atoms: C_10  and  OXT_12
REMARK                            x       y       z     vdW  Elec       q    Type
REMARK                         _______ _______ _______ _____ _____    ______ ____
ROOT
ATOM      1  CA  PHE A   1      18.559   5.714   8.647  0.00  0.00    +0.165 C 
ENDROOT
BRANCH   1   2
ATOM      2  N   PHE A   1      17.369   6.528   8.391  0.00  0.00    -0.318 NA
ATOM      3  H1  PHE A   1      17.624   7.537   8.499  0.00  0.00    +0.119 HD
ATOM      4  H2  PHE A   1      16.637   6.314   9.108  0.00  0.00    +0.119 HD
ENDBRANCH   1   2
BRANCH   1   5
ATOM      5  C   PHE A   1      18.137   4.355   9.132  0.00  0.00    +0.322 C 
ATOM      6  O   PHE A   1      17.170   3.761   8.584  0.00  0.00    -0.249 OA
BRANCH   5   7
ATOM      7  OXT PHE A   1      18.824   3.743  10.177  0.00  0.00    -0.479 OA
ATOM      8  HXT PHE A   1      19.208   4.292  10.938  0.00  0.00    +0.295 HD
ENDBRANCH   5   7
ENDBRANCH   1   5
BRANCH   1   9
ATOM      9  CB  PHE A   1      19.492   6.406   9.663  0.00  0.00    +0.065 C 
BRANCH   9  10
ATOM     10  CG  PHE A   1      20.927   6.395   9.200  0.00  0.00    -0.045 A 
ATOM     11  CD1 PHE A   1      21.443   7.481   8.473  0.00  0.00    +0.003 A 
ATOM     12  CE1 PHE A   1      22.766   7.458   8.018  0.00  0.00    +0.000 A 
ATOM     13  CZ  PHE A   1      23.577   6.350   8.279  0.00  0.00    +0.000 A 
ATOM     14  CE2 PHE A   1      23.068   5.262   8.992  0.00  0.00    +0.000 A 
ATOM     15  CD2 PHE A   1      21.747   5.281   9.449  0.00  0.00    +0.003 A 
ENDBRANCH   9  10
ENDBRANCH   1   9
TORSDOF 5
ENDMDL
MODEL 6
REMARK VINA RESULT:      -4.8      3.317      5.109
REMARK  Name = peptide_34_DHKTFFKIYF
REMARK  5 active torsions:
REMARK  status: ('A' for Active; 'I' for Inactive)
REMARK    1  A    between atoms: N_1  and  CA_2
REMARK    2  A    between atoms: CA_2  and  CB_3
REMARK    3  A    between atoms: CA_2  and  C_10
REMARK    4  A    between atoms: CB_3  and  CG_4
REMARK    5  A    between atoms: C_10  and  OXT_12
REMARK                            x       y       z     vdW  Elec       q    Type
REMARK                         _______ _______ _______ _____ _____    ______ ____
ROOT
ATOM      1  CA  PHE A   1     -10.228  -1.000  47.883  0.00  0.00    +0.165 C 
ENDROOT
BRANCH   1   2
ATOM      2  N   PHE A   1     -10.975  -1.107  49.138  0.00  0.00    -0.318 NA
ATOM      3  H1  PHE A   1     -11.569  -1.967  49.102  0.00  0.00    +0.119 HD
ATOM      4  H2  PHE A   1     -11.620  -0.288  49.232  0.00  0.00    +0.119 HD
ENDBRANCH   1   2
BRANCH   1   5
ATOM      5  C   PHE A   1     -11.083  -1.499  46.752  0.00  0.00    +0.322 C 
ATOM      6  O   PHE A   1     -10.974  -0.988  45.605  0.00  0.00    -0.249 OA
BRANCH   5   7
ATOM      7  OXT PHE A   1     -11.985  -2.538  46.964  0.00  0.00    -0.479 OA
ATOM      8  HXT PHE A   1     -12.409  -3.026  46.184  0.00  0.00    +0.295 HD
ENDBRANCH   5   7
ENDBRANCH   1   5
BRANCH   1   9
ATOM      9  CB  PHE A   1      -8.899  -1.780  47.965  0.00  0.00    +0.065 C 
BRANCH   9  10
ATOM     10  CG  PHE A   1      -7.711  -0.852  48.017  0.00  0.00    -0.045 A 
ATOM     11  CD1 PHE A   1      -6.406  -1.373  47.984  0.00  0.00    +0.003 A 
ATOM     12  CE1 PHE A   1      -5.304  -0.516  48.062  0.00  0.00    +0.000 A 
ATOM     13  CZ  PHE A   1      -5.496   0.864  48.182  0.00  0.00    +0.000 A 
ATOM     14  CE2 PHE A   1      -6.790   1.388  48.227  0.00  0.00    +0.000 A 
ATOM     15  CD2 PHE A   1      -7.895   0.535  48.148  0.00  0.00    +0.003 A 
ENDBRANCH   9  10
ENDBRANCH   1   9
TORSDOF 5
ENDMDL
MODEL 7
REMARK VINA RESULT:      -4.7     24.579     25.588
REMARK  Name = peptide_34_DHKTFFKIYF
REMARK  5 active torsions:
REMARK  status: ('A' for Active; 'I' for Inactive)
REMARK    1  A    between atoms: N_1  and  CA_2
REMARK    2  A    between atoms: CA_2  and  CB_3
REMARK    3  A    between atoms: CA_2  and  C_10
REMARK    4  A    between atoms: CB_3  and  CG_4
REMARK    5  A    between atoms: C_10  and  OXT_12
REMARK                            x       y       z     vdW  Elec       q    Type
REMARK                         _______ _______ _______ _____ _____    ______ ____
ROOT
ATOM      1  CA  PHE A   1       6.754  -2.908  27.978  0.00  0.00    +0.165 C 
ENDROOT
BRANCH   1   2
ATOM      2  N   PHE A   1       8.212  -3.028  27.904  0.00  0.00    -0.318 NA
ATOM      3  H1  PHE A   1       8.582  -2.243  27.321  0.00  0.00    +0.119 HD
ATOM      4  H2  PHE A   1       8.464  -3.920  27.420  0.00  0.00    +0.119 HD
ENDBRANCH   1   2
BRANCH   1   5
ATOM      5  C   PHE A   1       6.282  -3.397  29.320  0.00  0.00    +0.322 C 
ATOM      6  O   PHE A   1       6.610  -2.779  30.368  0.00  0.00    -0.249 OA
BRANCH   5   7
ATOM      7  OXT PHE A   1       5.469  -4.523  29.405  0.00  0.00    -0.479 OA
ATOM      8  HXT PHE A   1       5.285  -5.094  28.588  0.00  0.00    +0.295 HD
ENDBRANCH   5   7
ENDBRANCH   1   5
BRANCH   1   9
ATOM      9  CB  PHE A   1       6.077  -3.685  26.830  0.00  0.00    +0.065 C 
BRANCH   9  10
ATOM     10  CG  PHE A   1       5.369  -2.761  25.872  0.00  0.00    -0.045 A 
ATOM     11  CD1 PHE A   1       5.921  -1.506  25.563  0.00  0.00    +0.003 A 
ATOM     12  CE1 PHE A   1       5.250  -0.636  24.698  0.00  0.00    +0.000 A 
ATOM     13  CZ  PHE A   1       4.022  -1.008  24.142  0.00  0.00    +0.000 A 
ATOM     14  CE2 PHE A   1       3.462  -2.250  24.453  0.00  0.00    +0.000 A 
ATOM     15  CD2 PHE A   1       4.130  -3.123  25.317  0.00  0.00    +0.003 A 
ENDBRANCH   9  10
ENDBRANCH   1   9
TORSDOF 5
ENDMDL
MODEL 8
REMARK VINA RESULT:      -4.7     44.782     45.976
REMARK  Name = peptide_34_DHKTFFKIYF
REMARK  5 active torsions:
REMARK  status: ('A' for Active; 'I' for Inactive)
REMARK    1  A    between atoms: N_1  and  CA_2
REMARK    2  A    between atoms: CA_2  and  CB_3
REMARK    3  A    between atoms: CA_2  and  C_10
REMARK    4  A    between atoms: CB_3  and  CG_4
REMARK    5  A    between atoms: C_10  and  OXT_12
REMARK                            x       y       z     vdW  Elec       q    Type
REMARK                         _______ _______ _______ _____ _____    ______ ____
ROOT
ATOM      1  CA  PHE A   1      17.681   5.984   9.539  0.00  0.00    +0.165 C 
ENDROOT
BRANCH   1   2
ATOM      2  N   PHE A   1      17.136   6.519   8.289  0.00  0.00    -0.318 NA
ATOM      3  H1  PHE A   1      17.540   5.979   7.490  0.00  0.00    +0.119 HD
ATOM      4  H2  PHE A   1      17.436   7.514   8.175  0.00  0.00    +0.119 HD
ENDBRANCH   1   2
BRANCH   1   5
ATOM      5  C   PHE A   1      18.001   4.526   9.358  0.00  0.00    +0.322 C 
ATOM      6  O   PHE A   1      17.313   3.821   8.571  0.00  0.00    -0.249 OA
BRANCH   5   7
ATOM      7  OXT PHE A   1      19.068   3.955  10.046  0.00  0.00    -0.479 OA
ATOM      8  HXT PHE A   1      19.264   2.964   9.970  0.00  0.00    +0.295 HD
ENDBRANCH   5   7
ENDBRANCH   1   5
BRANCH   1   9
ATOM      9  CB  PHE A   1      16.696   6.199  10.707  0.00  0.00    +0.065 C 
BRANCH   9  10
ATOM     10  CG  PHE A   1      17.236   7.180  11.717  0.00  0.00    -0.045 A 
ATOM     11  CD1 PHE A   1      18.071   8.233  11.304  0.00  0.00    +0.003 A 
ATOM     12  CE1 PHE A   1      18.596   9.125  12.244  0.00  0.00    +0.000 A 
ATOM     13  CZ  PHE A   1      18.298   8.969  13.601  0.00  0.00    +0.000 A 
ATOM     14  CE2 PHE A   1      17.478   7.919  14.021  0.00  0.00    +0.000 A 
ATOM     15  CD2 PHE A   1      16.951   7.025  13.085  0.00  0.00    +0.003 A 
ENDBRANCH   9  10
ENDBRANCH   1   9
TORSDOF 5
ENDMDL
MODEL 9
REMARK VINA RESULT:      -4.7      2.699      4.756
REMARK  Name = peptide_34_DHKTFFKIYF
REMARK  5 active torsions:
REMARK  status: ('A' for Active; 'I' for Inactive)
REMARK    1  A    between atoms: N_1  and  CA_2
REMARK    2  A    between atoms: CA_2  and  CB_3
REMARK    3  A    between atoms: CA_2  and  C_10
REMARK    4  A    between atoms: CB_3  and  CG_4
REMARK    5  A    between atoms: C_10  and  OXT_12
REMARK                            x       y       z     vdW  Elec       q    Type
REMARK                         _______ _______ _______ _____ _____    ______ ____
ROOT
ATOM      1  CA  PHE A   1      -8.827   0.442  47.615  0.00  0.00    +0.165 C 
ENDROOT
BRANCH   1   2
ATOM      2  N   PHE A   1      -9.313   1.627  46.904  0.00  0.00    -0.318 NA
ATOM      3  H1  PHE A   1      -9.408   2.412  47.588  0.00  0.00    +0.119 HD
ATOM      4  H2  PHE A   1     -10.267   1.435  46.517  0.00  0.00    +0.119 HD
ENDBRANCH   1   2
BRANCH   1   5
ATOM      5  C   PHE A   1      -9.978  -0.225  48.315  0.00  0.00    +0.322 C 
ATOM      6  O   PHE A   1      -9.874  -1.420  48.702  0.00  0.00    -0.249 OA
BRANCH   5   7
ATOM      7  OXT PHE A   1     -11.155   0.480  48.551  0.00  0.00    -0.479 OA
ATOM      8  HXT PHE A   1     -11.870   0.550  47.836  0.00  0.00    +0.295 HD
ENDBRANCH   5   7
ENDBRANCH   1   5
BRANCH   1   9
ATOM      9  CB  PHE A   1      -7.709   0.818  48.611  0.00  0.00    +0.065 C 
BRANCH   9  10
ATOM     10  CG  PHE A   1      -6.483  -0.039  48.422  0.00  0.00    -0.045 A 
ATOM     11  CD1 PHE A   1      -5.209   0.475  48.720  0.00  0.00    +0.003 A 
ATOM     12  CE1 PHE A   1      -4.069  -0.309  48.516  0.00  0.00    +0.000 A 
ATOM     13  CZ  PHE A   1      -4.191  -1.605  48.008  0.00  0.00    +0.000 A 
ATOM     14  CE2 PHE A   1      -5.453  -2.119  47.699  0.00  0.00    +0.000 A 
ATOM     15  CD2 PHE A   1      -6.595  -1.339  47.901  0.00  0.00    +0.003 A 
ENDBRANCH   9  10
ENDBRANCH   1   9
TORSDOF 5
ENDMDL
