MODEL 1
REMARK VINA RESULT:      -4.8      0.000      0.000
REMARK  Name = peptide_7_DHKCRHCNHD
REMARK  5 active torsions:
REMARK  status: ('A' for Active; 'I' for Inactive)
REMARK    1  A    between atoms: N_1  and  CA_2
REMARK    2  A    between atoms: CA_2  and  CB_3
REMARK    3  A    between atoms: CA_2  and  C_10
REMARK    4  A    between atoms: CB_3  and  CG_4
REMARK    5  A    between atoms: C_10  and  OXT_12
REMARK                            x       y       z     vdW  Elec       q    Type
REMARK                         _______ _______ _______ _____ _____    ______ ____
ROOT
ATOM      1  CA  PHE A   1       6.935  -2.816  27.963  0.00  0.00    +0.165 C 
ENDROOT
BRANCH   1   2
ATOM      2  N   PHE A   1       8.368  -3.103  27.863  0.00  0.00    -0.318 NA
ATOM      3  H1  PHE A   1       8.804  -2.962  28.803  0.00  0.00    +0.119 HD
ATOM      4  H2  PHE A   1       8.816  -2.421  27.208  0.00  0.00    +0.119 HD
ENDBRANCH   1   2
BRANCH   1   5
ATOM      5  C   PHE A   1       6.474  -3.075  29.371  0.00  0.00    +0.322 C 
ATOM      6  O   PHE A   1       5.888  -4.154  29.655  0.00  0.00    -0.249 OA
BRANCH   5   7
ATOM      7  OXT PHE A   1       6.708  -2.130  30.366  0.00  0.00    -0.479 OA
ATOM      8  HXT PHE A   1       7.589  -2.112  30.867  0.00  0.00    +0.295 HD
ENDBRANCH   5   7
ENDBRANCH   1   5
BRANCH   1   9
ATOM      9  CB  PHE A   1       6.133  -3.657  26.948  0.00  0.00    +0.065 C 
BRANCH   9  10
ATOM     10  CG  PHE A   1       5.472  -2.791  25.905  0.00  0.00    -0.045 A 
ATOM     11  CD1 PHE A   1       4.410  -3.296  25.136  0.00  0.00    +0.003 A 
ATOM     12  CE1 PHE A   1       3.817  -2.504  24.148  0.00  0.00    +0.000 A 
ATOM     13  CZ  PHE A   1       4.284  -1.207  23.916  0.00  0.00    +0.000 A 
ATOM     14  CE2 PHE A   1       5.347  -0.701  24.669  0.00  0.00    +0.000 A 
ATOM     15  CD2 PHE A   1       5.942  -1.490  25.658  0.00  0.00    +0.003 A 
ENDBRANCH   9  10
ENDBRANCH   1   9
TORSDOF 5
ENDMDL
MODEL 2
REMARK VINA RESULT:      -4.8     16.352     17.228
REMARK  Name = peptide_7_DHKCRHCNHD
REMARK  5 active torsions:
REMARK  status: ('A' for Active; 'I' for Inactive)
REMARK    1  A    between atoms: N_1  and  CA_2
REMARK    2  A    between atoms: CA_2  and  CB_3
REMARK    3  A    between atoms: CA_2  and  C_10
REMARK    4  A    between atoms: CB_3  and  CG_4
REMARK    5  A    between atoms: C_10  and  OXT_12
REMARK                            x       y       z     vdW  Elec       q    Type
REMARK                         _______ _______ _______ _____ _____    ______ ____
ROOT
ATOM      1  CA  PHE A   1       9.683  -5.822  42.879  0.00  0.00    +0.165 C 
ENDROOT
BRANCH   1   2
ATOM      2  N   PHE A   1       8.791  -6.213  41.784  0.00  0.00    -0.318 NA
ATOM      3  H1  PHE A   1       9.127  -5.761  40.903  0.00  0.00    +0.119 HD
ATOM      4  H2  PHE A   1       7.828  -5.850  41.972  0.00  0.00    +0.119 HD
ENDBRANCH   1   2
BRANCH   1   5
ATOM      5  C   PHE A   1       8.965  -5.990  44.189  0.00  0.00    +0.322 C 
ATOM      6  O   PHE A   1       8.623  -7.138  44.579  0.00  0.00    -0.249 OA
BRANCH   5   7
ATOM      7  OXT PHE A   1       8.691  -4.879  44.981  0.00  0.00    -0.479 OA
ATOM      8  HXT PHE A   1       9.031  -3.960  44.722  0.00  0.00    +0.295 HD
ENDBRANCH   5   7
ENDBRANCH   1   5
BRANCH   1   9
ATOM      9  CB  PHE A   1      10.180  -4.373  42.694  0.00  0.00    +0.065 C 
BRANCH   9  10
ATOM     10  CG  PHE A   1      11.613  -4.330  42.226  0.00  0.00    -0.045 A 
ATOM     11  CD1 PHE A   1      12.005  -3.415  41.235  0.00  0.00    +0.003 A 
ATOM     12  CE1 PHE A   1      13.327  -3.395  40.778  0.00  0.00    +0.000 A 
ATOM     13  CZ  PHE A   1      14.263  -4.291  41.303  0.00  0.00    +0.000 A 
ATOM     14  CE2 PHE A   1      13.878  -5.212  42.281  0.00  0.00    +0.000 A 
ATOM     15  CD2 PHE A   1      12.558  -5.235  42.740  0.00  0.00    +0.003 A 
ENDBRANCH   9  10
ENDBRANCH   1   9
TORSDOF 5
ENDMDL
MODEL 3
REMARK VINA RESULT:      -4.8     24.687     25.683
REMARK  Name = peptide_7_DHKCRHCNHD
REMARK  5 active torsions:
REMARK  status: ('A' for Active; 'I' for Inactive)
REMARK    1  A    between atoms: N_1  and  CA_2
REMARK    2  A    between atoms: CA_2  and  CB_3
REMARK    3  A    between atoms: CA_2  and  C_10
REMARK    4  A    between atoms: CB_3  and  CG_4
REMARK    5  A    between atoms: C_10  and  OXT_12
REMARK                            x       y       z     vdW  Elec       q    Type
REMARK                         _______ _______ _______ _____ _____    ______ ____
ROOT
ATOM      1  CA  PHE A   1      -6.633  -0.398  47.776  0.00  0.00    +0.165 C 
ENDROOT
BRANCH   1   2
ATOM      2  N   PHE A   1      -5.432  -0.957  47.152  0.00  0.00    -0.318 NA
ATOM      3  H1  PHE A   1      -5.467  -1.999  47.233  0.00  0.00    +0.119 HD
ATOM      4  H2  PHE A   1      -4.584  -0.633  47.674  0.00  0.00    +0.119 HD
ENDBRANCH   1   2
BRANCH   1   5
ATOM      5  C   PHE A   1      -6.232   0.492  48.920  0.00  0.00    +0.322 C 
ATOM      6  O   PHE A   1      -5.393   0.089  49.769  0.00  0.00    -0.249 OA
BRANCH   5   7
ATOM      7  OXT PHE A   1      -6.773   1.770  49.032  0.00  0.00    -0.479 OA
ATOM      8  HXT PHE A   1      -7.761   1.931  48.871  0.00  0.00    +0.295 HD
ENDBRANCH   5   7
ENDBRANCH   1   5
BRANCH   1   9
ATOM      9  CB  PHE A   1      -7.582  -1.520  48.248  0.00  0.00    +0.065 C 
BRANCH   9  10
ATOM     10  CG  PHE A   1      -9.016  -1.228  47.882  0.00  0.00    -0.045 A 
ATOM     11  CD1 PHE A   1      -9.743  -2.136  47.094  0.00  0.00    +0.003 A 
ATOM     12  CE1 PHE A   1     -11.063  -1.852  46.729  0.00  0.00    +0.000 A 
ATOM     13  CZ  PHE A   1     -11.662  -0.658  47.141  0.00  0.00    +0.000 A 
ATOM     14  CE2 PHE A   1     -10.942   0.255  47.915  0.00  0.00    +0.000 A 
ATOM     15  CD2 PHE A   1      -9.623  -0.025  48.283  0.00  0.00    +0.003 A 
ENDBRANCH   9  10
ENDBRANCH   1   9
TORSDOF 5
ENDMDL
MODEL 4
REMARK VINA RESULT:      -4.8     24.903     26.025
REMARK  Name = peptide_7_DHKCRHCNHD
REMARK  5 active torsions:
REMARK  status: ('A' for Active; 'I' for Inactive)
REMARK    1  A    between atoms: N_1  and  CA_2
REMARK    2  A    between atoms: CA_2  and  CB_3
REMARK    3  A    between atoms: CA_2  and  C_10
REMARK    4  A    between atoms: CB_3  and  CG_4
REMARK    5  A    between atoms: C_10  and  OXT_12
REMARK                            x       y       z     vdW  Elec       q    Type
REMARK                         _______ _______ _______ _____ _____    ______ ____
ROOT
ATOM      1  CA  PHE A   1     -10.161  -0.847  48.350  0.00  0.00    +0.165 C 
ENDROOT
BRANCH   1   2
ATOM      2  N   PHE A   1     -10.777  -1.615  49.435  0.00  0.00    -0.318 NA
ATOM      3  H1  PHE A   1     -11.815  -1.506  49.374  0.00  0.00    +0.119 HD
ATOM      4  H2  PHE A   1     -10.476  -1.221  50.356  0.00  0.00    +0.119 HD
ENDBRANCH   1   2
BRANCH   1   5
ATOM      5  C   PHE A   1     -11.176  -0.616  47.266  0.00  0.00    +0.322 C 
ATOM      6  O   PHE A   1     -12.364  -0.321  47.565  0.00  0.00    -0.249 OA
BRANCH   5   7
ATOM      7  OXT PHE A   1     -10.802  -0.712  45.928  0.00  0.00    -0.479 OA
ATOM      8  HXT PHE A   1      -9.824  -0.748  45.664  0.00  0.00    +0.295 HD
ENDBRANCH   5   7
ENDBRANCH   1   5
BRANCH   1   9
ATOM      9  CB  PHE A   1      -8.912  -1.571  47.803  0.00  0.00    +0.065 C 
BRANCH   9  10
ATOM     10  CG  PHE A   1      -7.665  -0.741  47.978  0.00  0.00    -0.045 A 
ATOM     11  CD1 PHE A   1      -7.759   0.655  48.116  0.00  0.00    +0.003 A 
ATOM     12  CE1 PHE A   1      -6.601   1.428  48.248  0.00  0.00    +0.000 A 
ATOM     13  CZ  PHE A   1      -5.345   0.816  48.236  0.00  0.00    +0.000 A 
ATOM     14  CE2 PHE A   1      -5.243  -0.570  48.088  0.00  0.00    +0.000 A 
ATOM     15  CD2 PHE A   1      -6.397  -1.346  47.957  0.00  0.00    +0.003 A 
ENDBRANCH   9  10
ENDBRANCH   1   9
TORSDOF 5
ENDMDL
MODEL 5
REMARK VINA RESULT:      -4.8     22.018     23.156
REMARK  Name = peptide_7_DHKCRHCNHD
REMARK  5 active torsions:
REMARK  status: ('A' for Active; 'I' for Inactive)
REMARK    1  A    between atoms: N_1  and  CA_2
REMARK    2  A    between atoms: CA_2  and  CB_3
REMARK    3  A    between atoms: CA_2  and  C_10
REMARK    4  A    between atoms: CB_3  and  CG_4
REMARK    5  A    between atoms: C_10  and  OXT_12
REMARK                            x       y       z     vdW  Elec       q    Type
REMARK                         _______ _______ _______ _____ _____    ______ ____
ROOT
ATOM      1  CA  PHE A   1      19.378   4.738   9.067  0.00  0.00    +0.165 C 
ENDROOT
BRANCH   1   2
ATOM      2  N   PHE A   1      18.847   3.841  10.097  0.00  0.00    -0.318 NA
ATOM      3  H1  PHE A   1      18.587   2.933   9.648  0.00  0.00    +0.119 HD
ATOM      4  H2  PHE A   1      17.972   4.250  10.499  0.00  0.00    +0.119 HD
ENDBRANCH   1   2
BRANCH   1   5
ATOM      5  C   PHE A   1      20.764   4.295   8.690  0.00  0.00    +0.322 C 
ATOM      6  O   PHE A   1      21.558   5.106   8.140  0.00  0.00    -0.249 OA
BRANCH   5   7
ATOM      7  OXT PHE A   1      21.180   2.995   8.961  0.00  0.00    -0.479 OA
ATOM      8  HXT PHE A   1      21.096   2.266   8.261  0.00  0.00    +0.295 HD
ENDBRANCH   5   7
ENDBRANCH   1   5
BRANCH   1   9
ATOM      9  CB  PHE A   1      19.371   6.202   9.555  0.00  0.00    +0.065 C 
BRANCH   9  10
ATOM     10  CG  PHE A   1      17.980   6.666   9.908  0.00  0.00    -0.045 A 
ATOM     11  CD1 PHE A   1      16.944   6.573   8.963  0.00  0.00    +0.003 A 
ATOM     12  CE1 PHE A   1      15.661   7.031   9.279  0.00  0.00    +0.000 A 
ATOM     13  CZ  PHE A   1      15.405   7.589  10.535  0.00  0.00    +0.000 A 
ATOM     14  CE2 PHE A   1      16.433   7.694  11.476  0.00  0.00    +0.000 A 
ATOM     15  CD2 PHE A   1      17.717   7.238  11.164  0.00  0.00    +0.003 A 
ENDBRANCH   9  10
ENDBRANCH   1   9
TORSDOF 5
ENDMDL
MODEL 6
REMARK VINA RESULT:      -4.7     22.422     23.611
REMARK  Name = peptide_7_DHKCRHCNHD
REMARK  5 active torsions:
REMARK  status: ('A' for Active; 'I' for Inactive)
REMARK    1  A    between atoms: N_1  and  CA_2
REMARK    2  A    between atoms: CA_2  and  CB_3
REMARK    3  A    between atoms: CA_2  and  C_10
REMARK    4  A    between atoms: CB_3  and  CG_4
REMARK    5  A    between atoms: C_10  and  OXT_12
REMARK                            x       y       z     vdW  Elec       q    Type
REMARK                         _______ _______ _______ _____ _____    ______ ____
ROOT
ATOM      1  CA  PHE A   1      17.330   6.288  10.138  0.00  0.00    +0.165 C 
ENDROOT
BRANCH   1   2
ATOM      2  N   PHE A   1      16.797   5.899  11.445  0.00  0.00    -0.318 NA
ATOM      3  H1  PHE A   1      17.516   6.108  12.175  0.00  0.00    +0.119 HD
ATOM      4  H2  PHE A   1      16.629   4.866  11.461  0.00  0.00    +0.119 HD
ENDBRANCH   1   2
BRANCH   1   5
ATOM      5  C   PHE A   1      16.234   6.913   9.319  0.00  0.00    +0.322 C 
ATOM      6  O   PHE A   1      15.035   6.574   9.507  0.00  0.00    -0.249 OA
BRANCH   5   7
ATOM      7  OXT PHE A   1      16.540   7.878   8.364  0.00  0.00    -0.479 OA
ATOM      8  HXT PHE A   1      17.481   8.248   8.283  0.00  0.00    +0.295 HD
ENDBRANCH   5   7
ENDBRANCH   1   5
BRANCH   1   9
ATOM      9  CB  PHE A   1      17.948   5.074   9.412  0.00  0.00    +0.065 C 
BRANCH   9  10
ATOM     10  CG  PHE A   1      19.443   5.209   9.274  0.00  0.00    -0.045 A 
ATOM     11  CD1 PHE A   1      20.249   4.063   9.162  0.00  0.00    +0.003 A 
ATOM     12  CE1 PHE A   1      21.639   4.186   9.064  0.00  0.00    +0.000 A 
ATOM     13  CZ  PHE A   1      22.233   5.451   9.084  0.00  0.00    +0.000 A 
ATOM     14  CE2 PHE A   1      21.440   6.595   9.206  0.00  0.00    +0.000 A 
ATOM     15  CD2 PHE A   1      20.050   6.477   9.303  0.00  0.00    +0.003 A 
ENDBRANCH   9  10
ENDBRANCH   1   9
TORSDOF 5
ENDMDL
MODEL 7
REMARK VINA RESULT:      -4.7     22.747     23.924
REMARK  Name = peptide_7_DHKCRHCNHD
REMARK  5 active torsions:
REMARK  status: ('A' for Active; 'I' for Inactive)
REMARK    1  A    between atoms: N_1  and  CA_2
REMARK    2  A    between atoms: CA_2  and  CB_3
REMARK    3  A    between atoms: CA_2  and  C_10
REMARK    4  A    between atoms: CB_3  and  CG_4
REMARK    5  A    between atoms: C_10  and  OXT_12
REMARK                            x       y       z     vdW  Elec       q    Type
REMARK                         _______ _______ _______ _____ _____    ______ ____
ROOT
ATOM      1  CA  PHE A   1      17.833   6.281   9.028  0.00  0.00    +0.165 C 
ENDROOT
BRANCH   1   2
ATOM      2  N   PHE A   1      17.143   7.120   8.046  0.00  0.00    -0.318 NA
ATOM      3  H1  PHE A   1      17.625   8.047   8.001  0.00  0.00    +0.119 HD
ATOM      4  H2  PHE A   1      16.162   7.296   8.364  0.00  0.00    +0.119 HD
ENDBRANCH   1   2
BRANCH   1   5
ATOM      5  C   PHE A   1      16.879   5.922  10.134  0.00  0.00    +0.322 C 
ATOM      6  O   PHE A   1      15.708   5.545   9.860  0.00  0.00    -0.249 OA
BRANCH   5   7
ATOM      7  OXT PHE A   1      17.291   5.992  11.461  0.00  0.00    -0.479 OA
ATOM      8  HXT PHE A   1      17.960   6.692  11.761  0.00  0.00    +0.295 HD
ENDBRANCH   5   7
ENDBRANCH   1   5
BRANCH   1   9
ATOM      9  CB  PHE A   1      19.085   6.994   9.580  0.00  0.00    +0.065 C 
BRANCH   9  10
ATOM     10  CG  PHE A   1      20.330   6.165   9.385  0.00  0.00    -0.045 A 
ATOM     11  CD1 PHE A   1      20.232   4.775   9.205  0.00  0.00    +0.003 A 
ATOM     12  CE1 PHE A   1      21.388   4.002   9.055  0.00  0.00    +0.000 A 
ATOM     13  CZ  PHE A   1      22.646   4.609   9.090  0.00  0.00    +0.000 A 
ATOM     14  CE2 PHE A   1      22.752   5.989   9.279  0.00  0.00    +0.000 A 
ATOM     15  CD2 PHE A   1      21.600   6.766   9.430  0.00  0.00    +0.003 A 
ENDBRANCH   9  10
ENDBRANCH   1   9
TORSDOF 5
ENDMDL
MODEL 8
REMARK VINA RESULT:      -4.6     15.940     17.041
REMARK  Name = peptide_7_DHKCRHCNHD
REMARK  5 active torsions:
REMARK  status: ('A' for Active; 'I' for Inactive)
REMARK    1  A    between atoms: N_1  and  CA_2
REMARK    2  A    between atoms: CA_2  and  CB_3
REMARK    3  A    between atoms: CA_2  and  C_10
REMARK    4  A    between atoms: CB_3  and  CG_4
REMARK    5  A    between atoms: C_10  and  OXT_12
REMARK                            x       y       z     vdW  Elec       q    Type
REMARK                         _______ _______ _______ _____ _____    ______ ____
ROOT
ATOM      1  CA  PHE A   1      11.049  -4.604  42.802  0.00  0.00    +0.165 C 
ENDROOT
BRANCH   1   2
ATOM      2  N   PHE A   1      11.323  -6.042  42.860  0.00  0.00    -0.318 NA
ATOM      3  H1  PHE A   1      10.780  -6.454  43.653  0.00  0.00    +0.119 HD
ATOM      4  H2  PHE A   1      12.337  -6.196  43.064  0.00  0.00    +0.119 HD
ENDBRANCH   1   2
BRANCH   1   5
ATOM      5  C   PHE A   1       9.591  -4.364  43.084  0.00  0.00    +0.322 C 
ATOM      6  O   PHE A   1       9.068  -4.823  44.134  0.00  0.00    -0.249 OA
BRANCH   5   7
ATOM      7  OXT PHE A   1       8.822  -3.621  42.193  0.00  0.00    -0.479 OA
ATOM      8  HXT PHE A   1       8.839  -2.608  42.212  0.00  0.00    +0.295 HD
ENDBRANCH   5   7
ENDBRANCH   1   5
BRANCH   1   9
ATOM      9  CB  PHE A   1      11.457  -4.020  41.433  0.00  0.00    +0.065 C 
BRANCH   9  10
ATOM     10  CG  PHE A   1      12.846  -3.434  41.469  0.00  0.00    -0.045 A 
ATOM     11  CD1 PHE A   1      13.582  -3.287  40.281  0.00  0.00    +0.003 A 
ATOM     12  CE1 PHE A   1      14.882  -2.772  40.318  0.00  0.00    +0.000 A 
ATOM     13  CZ  PHE A   1      15.456  -2.405  41.538  0.00  0.00    +0.000 A 
ATOM     14  CE2 PHE A   1      14.734  -2.557  42.725  0.00  0.00    +0.000 A 
ATOM     15  CD2 PHE A   1      13.435  -3.072  42.693  0.00  0.00    +0.003 A 
ENDBRANCH   9  10
ENDBRANCH   1   9
TORSDOF 5
ENDMDL
MODEL 9
REMARK VINA RESULT:      -4.5      5.628      6.876
REMARK  Name = peptide_7_DHKCRHCNHD
REMARK  5 active torsions:
REMARK  status: ('A' for Active; 'I' for Inactive)
REMARK    1  A    between atoms: N_1  and  CA_2
REMARK    2  A    between atoms: CA_2  and  CB_3
REMARK    3  A    between atoms: CA_2  and  C_10
REMARK    4  A    between atoms: CB_3  and  CG_4
REMARK    5  A    between atoms: C_10  and  OXT_12
REMARK                            x       y       z     vdW  Elec       q    Type
REMARK                         _______ _______ _______ _____ _____    ______ ____
ROOT
ATOM      1  CA  PHE A   1       0.731   1.160  25.324  0.00  0.00    +0.165 C 
ENDROOT
BRANCH   1   2
ATOM      2  N   PHE A   1       0.190   0.446  26.483  0.00  0.00    -0.318 NA
ATOM      3  H1  PHE A   1       0.988   0.099  27.063  0.00  0.00    +0.119 HD
ATOM      4  H2  PHE A   1      -0.346  -0.392  26.159  0.00  0.00    +0.119 HD
ENDBRANCH   1   2
BRANCH   1   5
ATOM      5  C   PHE A   1      -0.225   2.248  24.920  0.00  0.00    +0.322 C 
ATOM      6  O   PHE A   1      -1.407   2.244  25.358  0.00  0.00    -0.249 OA
BRANCH   5   7
ATOM      7  OXT PHE A   1       0.198   3.271  24.076  0.00  0.00    -0.479 OA
ATOM      8  HXT PHE A   1      -0.017   3.250  23.086  0.00  0.00    +0.295 HD
ENDBRANCH   5   7
ENDBRANCH   1   5
BRANCH   1   9
ATOM      9  CB  PHE A   1       0.998   0.189  24.155  0.00  0.00    +0.065 C 
BRANCH   9  10
ATOM     10  CG  PHE A   1       2.363  -0.445  24.258  0.00  0.00    -0.045 A 
ATOM     11  CD1 PHE A   1       3.519   0.352  24.202  0.00  0.00    +0.003 A 
ATOM     12  CE1 PHE A   1       4.785  -0.238  24.268  0.00  0.00    +0.000 A 
ATOM     13  CZ  PHE A   1       4.906  -1.626  24.382  0.00  0.00    +0.000 A 
ATOM     14  CE2 PHE A   1       3.761  -2.427  24.427  0.00  0.00    +0.000 A 
ATOM     15  CD2 PHE A   1       2.494  -1.841  24.362  0.00  0.00    +0.003 A 
ENDBRANCH   9  10
ENDBRANCH   1   9
TORSDOF 5
ENDMDL
