MODEL 1
REMARK VINA RESULT:      -4.8      0.000      0.000
REMARK  Name = peptide_30_EKETEMKYKL
REMARK  5 active torsions:
REMARK  status: ('A' for Active; 'I' for Inactive)
REMARK    1  A    between atoms: N_1  and  CA_2
REMARK    2  A    between atoms: CA_2  and  CB_3
REMARK    3  A    between atoms: CA_2  and  C_10
REMARK    4  A    between atoms: CB_3  and  CG_4
REMARK    5  A    between atoms: C_10  and  OXT_12
REMARK                            x       y       z     vdW  Elec       q    Type
REMARK                         _______ _______ _______ _____ _____    ______ ____
ROOT
ATOM      1  CA  PHE A   1       9.686  -5.835  42.888  0.00  0.00    +0.165 C 
ENDROOT
BRANCH   1   2
ATOM      2  N   PHE A   1       8.801  -6.238  41.793  0.00  0.00    -0.318 NA
ATOM      3  H1  PHE A   1       7.875  -6.512  42.196  0.00  0.00    +0.119 HD
ATOM      4  H2  PHE A   1       9.194  -7.082  41.317  0.00  0.00    +0.119 HD
ENDBRANCH   1   2
BRANCH   1   5
ATOM      5  C   PHE A   1       8.961  -5.988  44.196  0.00  0.00    +0.322 C 
ATOM      6  O   PHE A   1       8.606  -7.130  44.591  0.00  0.00    -0.249 OA
BRANCH   5   7
ATOM      7  OXT PHE A   1       8.696  -4.869  44.981  0.00  0.00    -0.479 OA
ATOM      8  HXT PHE A   1       9.044  -4.807  45.931  0.00  0.00    +0.295 HD
ENDBRANCH   5   7
ENDBRANCH   1   5
BRANCH   1   9
ATOM      9  CB  PHE A   1      10.184  -4.388  42.690  0.00  0.00    +0.065 C 
BRANCH   9  10
ATOM     10  CG  PHE A   1      11.611  -4.351  42.202  0.00  0.00    -0.045 A 
ATOM     11  CD1 PHE A   1      11.991  -3.445  41.197  0.00  0.00    +0.003 A 
ATOM     12  CE1 PHE A   1      13.307  -3.431  40.723  0.00  0.00    +0.000 A 
ATOM     13  CZ  PHE A   1      14.248  -4.324  41.243  0.00  0.00    +0.000 A 
ATOM     14  CE2 PHE A   1      13.876  -5.235  42.235  0.00  0.00    +0.000 A 
ATOM     15  CD2 PHE A   1      12.562  -5.252  42.712  0.00  0.00    +0.003 A 
ENDBRANCH   9  10
ENDBRANCH   1   9
TORSDOF 5
ENDMDL
MODEL 2
REMARK VINA RESULT:      -4.8     18.883     21.115
REMARK  Name = peptide_30_EKETEMKYKL
REMARK  5 active torsions:
REMARK  status: ('A' for Active; 'I' for Inactive)
REMARK    1  A    between atoms: N_1  and  CA_2
REMARK    2  A    between atoms: CA_2  and  CB_3
REMARK    3  A    between atoms: CA_2  and  C_10
REMARK    4  A    between atoms: CB_3  and  CG_4
REMARK    5  A    between atoms: C_10  and  OXT_12
REMARK                            x       y       z     vdW  Elec       q    Type
REMARK                         _______ _______ _______ _____ _____    ______ ____
ROOT
ATOM      1  CA  PHE A   1      -6.589  -0.352  47.516  0.00  0.00    +0.165 C 
ENDROOT
BRANCH   1   2
ATOM      2  N   PHE A   1      -5.442  -1.221  47.242  0.00  0.00    -0.318 NA
ATOM      3  H1  PHE A   1      -5.038  -0.958  46.314  0.00  0.00    +0.119 HD
ATOM      4  H2  PHE A   1      -5.765  -2.214  47.170  0.00  0.00    +0.119 HD
ENDBRANCH   1   2
BRANCH   1   5
ATOM      5  C   PHE A   1      -6.099   0.958  48.070  0.00  0.00    +0.322 C 
ATOM      6  O   PHE A   1      -5.063   1.496  47.595  0.00  0.00    -0.249 OA
BRANCH   5   7
ATOM      7  OXT PHE A   1      -6.799   1.586  49.096  0.00  0.00    -0.479 OA
ATOM      8  HXT PHE A   1      -6.557   2.525  49.390  0.00  0.00    +0.295 HD
ENDBRANCH   5   7
ENDBRANCH   1   5
BRANCH   1   9
ATOM      9  CB  PHE A   1      -7.579  -1.033  48.483  0.00  0.00    +0.065 C 
BRANCH   9  10
ATOM     10  CG  PHE A   1      -9.001  -0.926  47.993  0.00  0.00    -0.045 A 
ATOM     11  CD1 PHE A   1      -9.789   0.183  48.346  0.00  0.00    +0.003 A 
ATOM     12  CE1 PHE A   1     -11.117   0.269  47.916  0.00  0.00    +0.000 A 
ATOM     13  CZ  PHE A   1     -11.669  -0.753  47.139  0.00  0.00    +0.000 A 
ATOM     14  CE2 PHE A   1     -10.896  -1.864  46.793  0.00  0.00    +0.000 A 
ATOM     15  CD2 PHE A   1      -9.568  -1.954  47.220  0.00  0.00    +0.003 A 
ENDBRANCH   9  10
ENDBRANCH   1   9
TORSDOF 5
ENDMDL
MODEL 3
REMARK VINA RESULT:      -4.8     34.586     35.804
REMARK  Name = peptide_30_EKETEMKYKL
REMARK  5 active torsions:
REMARK  status: ('A' for Active; 'I' for Inactive)
REMARK    1  A    between atoms: N_1  and  CA_2
REMARK    2  A    between atoms: CA_2  and  CB_3
REMARK    3  A    between atoms: CA_2  and  C_10
REMARK    4  A    between atoms: CB_3  and  CG_4
REMARK    5  A    between atoms: C_10  and  OXT_12
REMARK                            x       y       z     vdW  Elec       q    Type
REMARK                         _______ _______ _______ _____ _____    ______ ____
ROOT
ATOM      1  CA  PHE A   1      19.376   4.743   9.071  0.00  0.00    +0.165 C 
ENDROOT
BRANCH   1   2
ATOM      2  N   PHE A   1      18.836   3.849  10.098  0.00  0.00    -0.318 NA
ATOM      3  H1  PHE A   1      19.316   2.923  10.021  0.00  0.00    +0.119 HD
ATOM      4  H2  PHE A   1      17.818   3.687   9.920  0.00  0.00    +0.119 HD
ENDBRANCH   1   2
BRANCH   1   5
ATOM      5  C   PHE A   1      20.756   4.283   8.688  0.00  0.00    +0.322 C 
ATOM      6  O   PHE A   1      21.561   5.086   8.144  0.00  0.00    -0.249 OA
BRANCH   5   7
ATOM      7  OXT PHE A   1      21.152   2.974   8.948  0.00  0.00    -0.479 OA
ATOM      8  HXT PHE A   1      22.071   2.775   9.326  0.00  0.00    +0.295 HD
ENDBRANCH   5   7
ENDBRANCH   1   5
BRANCH   1   9
ATOM      9  CB  PHE A   1      19.391   6.205   9.564  0.00  0.00    +0.065 C 
BRANCH   9  10
ATOM     10  CG  PHE A   1      18.004   6.695   9.895  0.00  0.00    -0.045 A 
ATOM     11  CD1 PHE A   1      17.717   7.193  11.178  0.00  0.00    +0.003 A 
ATOM     12  CE1 PHE A   1      16.424   7.619  11.494  0.00  0.00    +0.000 A 
ATOM     13  CZ  PHE A   1      15.408   7.546  10.537  0.00  0.00    +0.000 A 
ATOM     14  CE2 PHE A   1      15.682   7.042   9.263  0.00  0.00    +0.000 A 
ATOM     15  CD2 PHE A   1      16.973   6.615   8.942  0.00  0.00    +0.003 A 
ENDBRANCH   9  10
ENDBRANCH   1   9
TORSDOF 5
ENDMDL
MODEL 4
REMARK VINA RESULT:      -4.7     34.831     35.908
REMARK  Name = peptide_30_EKETEMKYKL
REMARK  5 active torsions:
REMARK  status: ('A' for Active; 'I' for Inactive)
REMARK    1  A    between atoms: N_1  and  CA_2
REMARK    2  A    between atoms: CA_2  and  CB_3
REMARK    3  A    between atoms: CA_2  and  C_10
REMARK    4  A    between atoms: CB_3  and  CG_4
REMARK    5  A    between atoms: C_10  and  OXT_12
REMARK                            x       y       z     vdW  Elec       q    Type
REMARK                         _______ _______ _______ _____ _____    ______ ____
ROOT
ATOM      1  CA  PHE A   1      17.829   6.135   9.074  0.00  0.00    +0.165 C 
ENDROOT
BRANCH   1   2
ATOM      2  N   PHE A   1      17.173   6.897   8.009  0.00  0.00    -0.318 NA
ATOM      3  H1  PHE A   1      16.642   7.687   8.442  0.00  0.00    +0.119 HD
ATOM      4  H2  PHE A   1      16.478   6.287   7.520  0.00  0.00    +0.119 HD
ENDBRANCH   1   2
BRANCH   1   5
ATOM      5  C   PHE A   1      16.833   5.841  10.161  0.00  0.00    +0.322 C 
ATOM      6  O   PHE A   1      15.645   5.543   9.866  0.00  0.00    -0.249 OA
BRANCH   5   7
ATOM      7  OXT PHE A   1      17.226   5.882  11.496  0.00  0.00    -0.479 OA
ATOM      8  HXT PHE A   1      17.440   5.030  12.001  0.00  0.00    +0.295 HD
ENDBRANCH   5   7
ENDBRANCH   1   5
BRANCH   1   9
ATOM      9  CB  PHE A   1      19.051   6.899   9.626  0.00  0.00    +0.065 C 
BRANCH   9  10
ATOM     10  CG  PHE A   1      20.330   6.127   9.420  0.00  0.00    -0.045 A 
ATOM     11  CD1 PHE A   1      20.292   4.737   9.214  0.00  0.00    +0.003 A 
ATOM     12  CE1 PHE A   1      21.479   4.016   9.053  0.00  0.00    +0.000 A 
ATOM     13  CZ  PHE A   1      22.711   4.675   9.103  0.00  0.00    +0.000 A 
ATOM     14  CE2 PHE A   1      22.758   6.055   9.318  0.00  0.00    +0.000 A 
ATOM     15  CD2 PHE A   1      21.574   6.779   9.479  0.00  0.00    +0.003 A 
ENDBRANCH   9  10
ENDBRANCH   1   9
TORSDOF 5
ENDMDL
MODEL 5
REMARK VINA RESULT:      -4.7     19.214     20.866
REMARK  Name = peptide_30_EKETEMKYKL
REMARK  5 active torsions:
REMARK  status: ('A' for Active; 'I' for Inactive)
REMARK    1  A    between atoms: N_1  and  CA_2
REMARK    2  A    between atoms: CA_2  and  CB_3
REMARK    3  A    between atoms: CA_2  and  C_10
REMARK    4  A    between atoms: CB_3  and  CG_4
REMARK    5  A    between atoms: C_10  and  OXT_12
REMARK                            x       y       z     vdW  Elec       q    Type
REMARK                         _______ _______ _______ _____ _____    ______ ____
ROOT
ATOM      1  CA  PHE A   1     -10.141  -1.022  47.854  0.00  0.00    +0.165 C 
ENDROOT
BRANCH   1   2
ATOM      2  N   PHE A   1     -10.932  -1.104  49.084  0.00  0.00    -0.318 NA
ATOM      3  H1  PHE A   1     -10.792  -0.224  49.631  0.00  0.00    +0.119 HD
ATOM      4  H2  PHE A   1     -10.581  -1.895  49.673  0.00  0.00    +0.119 HD
ENDBRANCH   1   2
BRANCH   1   5
ATOM      5  C   PHE A   1     -10.943  -1.577  46.709  0.00  0.00    +0.322 C 
ATOM      6  O   PHE A   1     -11.336  -2.774  46.735  0.00  0.00    -0.249 OA
BRANCH   5   7
ATOM      7  OXT PHE A   1     -11.267  -0.764  45.626  0.00  0.00    -0.479 OA
ATOM      8  HXT PHE A   1     -10.554  -0.459  44.974  0.00  0.00    +0.295 HD
ENDBRANCH   5   7
ENDBRANCH   1   5
BRANCH   1   9
ATOM      9  CB  PHE A   1      -8.800  -1.769  48.010  0.00  0.00    +0.065 C 
BRANCH   9  10
ATOM     10  CG  PHE A   1      -7.632  -0.815  48.046  0.00  0.00    -0.045 A 
ATOM     11  CD1 PHE A   1      -6.317  -1.305  47.980  0.00  0.00    +0.003 A 
ATOM     12  CE1 PHE A   1      -5.233  -0.424  48.044  0.00  0.00    +0.000 A 
ATOM     13  CZ  PHE A   1      -5.453   0.949  48.181  0.00  0.00    +0.000 A 
ATOM     14  CE2 PHE A   1      -6.758   1.444  48.259  0.00  0.00    +0.000 A 
ATOM     15  CD2 PHE A   1      -7.844   0.566  48.195  0.00  0.00    +0.003 A 
ENDBRANCH   9  10
ENDBRANCH   1   9
TORSDOF 5
ENDMDL
MODEL 6
REMARK VINA RESULT:      -4.7     35.015     35.856
REMARK  Name = peptide_30_EKETEMKYKL
REMARK  5 active torsions:
REMARK  status: ('A' for Active; 'I' for Inactive)
REMARK    1  A    between atoms: N_1  and  CA_2
REMARK    2  A    between atoms: CA_2  and  CB_3
REMARK    3  A    between atoms: CA_2  and  C_10
REMARK    4  A    between atoms: CB_3  and  CG_4
REMARK    5  A    between atoms: C_10  and  OXT_12
REMARK                            x       y       z     vdW  Elec       q    Type
REMARK                         _______ _______ _______ _____ _____    ______ ____
ROOT
ATOM      1  CA  PHE A   1      17.341   6.330  10.128  0.00  0.00    +0.165 C 
ENDROOT
BRANCH   1   2
ATOM      2  N   PHE A   1      16.810   5.907  11.426  0.00  0.00    -0.318 NA
ATOM      3  H1  PHE A   1      16.588   4.886  11.380  0.00  0.00    +0.119 HD
ATOM      4  H2  PHE A   1      15.913   6.411  11.618  0.00  0.00    +0.119 HD
ENDBRANCH   1   2
BRANCH   1   5
ATOM      5  C   PHE A   1      16.240   6.965   9.324  0.00  0.00    +0.322 C 
ATOM      6  O   PHE A   1      15.041   6.628   9.518  0.00  0.00    -0.249 OA
BRANCH   5   7
ATOM      7  OXT PHE A   1      16.542   7.937   8.375  0.00  0.00    -0.479 OA
ATOM      8  HXT PHE A   1      17.497   8.248   8.235  0.00  0.00    +0.295 HD
ENDBRANCH   5   7
ENDBRANCH   1   5
BRANCH   1   9
ATOM      9  CB  PHE A   1      17.968   5.139   9.375  0.00  0.00    +0.065 C 
BRANCH   9  10
ATOM     10  CG  PHE A   1      19.470   5.252   9.306  0.00  0.00    -0.045 A 
ATOM     11  CD1 PHE A   1      20.085   6.516   9.313  0.00  0.00    +0.003 A 
ATOM     12  CE1 PHE A   1      21.476   6.623   9.218  0.00  0.00    +0.000 A 
ATOM     13  CZ  PHE A   1      22.262   5.471   9.110  0.00  0.00    +0.000 A 
ATOM     14  CE2 PHE A   1      21.657   4.212   9.091  0.00  0.00    +0.000 A 
ATOM     15  CD2 PHE A   1      20.267   4.100   9.186  0.00  0.00    +0.003 A 
ENDBRANCH   9  10
ENDBRANCH   1   9
TORSDOF 5
ENDMDL
MODEL 7
REMARK VINA RESULT:      -4.7     16.353     17.235
REMARK  Name = peptide_30_EKETEMKYKL
REMARK  5 active torsions:
REMARK  status: ('A' for Active; 'I' for Inactive)
REMARK    1  A    between atoms: N_1  and  CA_2
REMARK    2  A    between atoms: CA_2  and  CB_3
REMARK    3  A    between atoms: CA_2  and  C_10
REMARK    4  A    between atoms: CB_3  and  CG_4
REMARK    5  A    between atoms: C_10  and  OXT_12
REMARK                            x       y       z     vdW  Elec       q    Type
REMARK                         _______ _______ _______ _____ _____    ______ ____
ROOT
ATOM      1  CA  PHE A   1       6.751  -2.936  27.997  0.00  0.00    +0.165 C 
ENDROOT
BRANCH   1   2
ATOM      2  N   PHE A   1       8.204  -3.074  27.883  0.00  0.00    -0.318 NA
ATOM      3  H1  PHE A   1       8.482  -2.872  26.895  0.00  0.00    +0.119 HD
ATOM      4  H2  PHE A   1       8.479  -4.062  28.087  0.00  0.00    +0.119 HD
ENDBRANCH   1   2
BRANCH   1   5
ATOM      5  C   PHE A   1       6.317  -3.370  29.370  0.00  0.00    +0.322 C 
ATOM      6  O   PHE A   1       6.632  -2.683  30.378  0.00  0.00    -0.249 OA
BRANCH   5   7
ATOM      7  OXT PHE A   1       5.553  -4.522  29.529  0.00  0.00    -0.479 OA
ATOM      8  HXT PHE A   1       5.990  -5.409  29.752  0.00  0.00    +0.295 HD
ENDBRANCH   5   7
ENDBRANCH   1   5
BRANCH   1   9
ATOM      9  CB  PHE A   1       6.032  -3.750  26.901  0.00  0.00    +0.065 C 
BRANCH   9  10
ATOM     10  CG  PHE A   1       5.430  -2.854  25.847  0.00  0.00    -0.045 A 
ATOM     11  CD1 PHE A   1       5.906  -1.543  25.677  0.00  0.00    +0.003 A 
ATOM     12  CE1 PHE A   1       5.328  -0.703  24.721  0.00  0.00    +0.000 A 
ATOM     13  CZ  PHE A   1       4.268  -1.161  23.934  0.00  0.00    +0.000 A 
ATOM     14  CE2 PHE A   1       3.781  -2.460  24.104  0.00  0.00    +0.000 A 
ATOM     15  CD2 PHE A   1       4.356  -3.304  25.059  0.00  0.00    +0.003 A 
ENDBRANCH   9  10
ENDBRANCH   1   9
TORSDOF 5
ENDMDL
MODEL 8
REMARK VINA RESULT:      -4.6     19.801     21.468
REMARK  Name = peptide_30_EKETEMKYKL
REMARK  5 active torsions:
REMARK  status: ('A' for Active; 'I' for Inactive)
REMARK    1  A    between atoms: N_1  and  CA_2
REMARK    2  A    between atoms: CA_2  and  CB_3
REMARK    3  A    between atoms: CA_2  and  C_10
REMARK    4  A    between atoms: CB_3  and  CG_4
REMARK    5  A    between atoms: C_10  and  OXT_12
REMARK                            x       y       z     vdW  Elec       q    Type
REMARK                         _______ _______ _______ _____ _____    ______ ____
ROOT
ATOM      1  CA  PHE A   1     -10.641  -1.131  46.987  0.00  0.00    +0.165 C 
ENDROOT
BRANCH   1   2
ATOM      2  N   PHE A   1     -11.294  -0.840  45.709  0.00  0.00    -0.318 NA
ATOM      3  H1  PHE A   1     -10.559  -0.746  44.972  0.00  0.00    +0.119 HD
ATOM      4  H2  PHE A   1     -11.791   0.079  45.772  0.00  0.00    +0.119 HD
ENDBRANCH   1   2
BRANCH   1   5
ATOM      5  C   PHE A   1     -11.609  -1.847  47.889  0.00  0.00    +0.322 C 
ATOM      6  O   PHE A   1     -12.727  -2.222  47.444  0.00  0.00    -0.249 OA
BRANCH   5   7
ATOM      7  OXT PHE A   1     -11.265  -2.111  49.212  0.00  0.00    -0.479 OA
ATOM      8  HXT PHE A   1     -10.676  -1.472  49.732  0.00  0.00    +0.295 HD
ENDBRANCH   5   7
ENDBRANCH   1   5
BRANCH   1   9
ATOM      9  CB  PHE A   1     -10.116   0.162  47.645  0.00  0.00    +0.065 C 
BRANCH   9  10
ATOM     10  CG  PHE A   1      -8.633   0.089  47.912  0.00  0.00    -0.045 A 
ATOM     11  CD1 PHE A   1      -7.873   1.268  48.002  0.00  0.00    +0.003 A 
ATOM     12  CE1 PHE A   1      -6.493   1.200  48.219  0.00  0.00    +0.000 A 
ATOM     13  CZ  PHE A   1      -5.863  -0.041  48.341  0.00  0.00    +0.000 A 
ATOM     14  CE2 PHE A   1      -6.610  -1.218  48.243  0.00  0.00    +0.000 A 
ATOM     15  CD2 PHE A   1      -7.990  -1.155  48.026  0.00  0.00    +0.003 A 
ENDBRANCH   9  10
ENDBRANCH   1   9
TORSDOF 5
ENDMDL
MODEL 9
REMARK VINA RESULT:      -4.6     21.371     22.372
REMARK  Name = peptide_30_EKETEMKYKL
REMARK  5 active torsions:
REMARK  status: ('A' for Active; 'I' for Inactive)
REMARK    1  A    between atoms: N_1  and  CA_2
REMARK    2  A    between atoms: CA_2  and  CB_3
REMARK    3  A    between atoms: CA_2  and  C_10
REMARK    4  A    between atoms: CB_3  and  CG_4
REMARK    5  A    between atoms: C_10  and  OXT_12
REMARK                            x       y       z     vdW  Elec       q    Type
REMARK                         _______ _______ _______ _____ _____    ______ ____
ROOT
ATOM      1  CA  PHE A   1     -10.416  -0.717  47.817  0.00  0.00    +0.165 C 
ENDROOT
BRANCH   1   2
ATOM      2  N   PHE A   1     -10.902  -1.156  49.127  0.00  0.00    -0.318 NA
ATOM      3  H1  PHE A   1     -11.832  -0.712  49.304  0.00  0.00    +0.119 HD
ATOM      4  H2  PHE A   1     -10.250  -0.820  49.872  0.00  0.00    +0.119 HD
ENDBRANCH   1   2
BRANCH   1   5
ATOM      5  C   PHE A   1     -10.155   0.764  47.855  0.00  0.00    +0.322 C 
ATOM      6  O   PHE A   1     -10.806   1.500  48.644  0.00  0.00    -0.249 OA
BRANCH   5   7
ATOM      7  OXT PHE A   1      -9.182   1.322  47.029  0.00  0.00    -0.479 OA
ATOM      8  HXT PHE A   1      -9.442   1.853  46.206  0.00  0.00    +0.295 HD
ENDBRANCH   5   7
ENDBRANCH   1   5
BRANCH   1   9
ATOM      9  CB  PHE A   1     -11.423  -1.079  46.705  0.00  0.00    +0.065 C 
BRANCH   9  10
ATOM     10  CG  PHE A   1     -10.865  -2.116  45.763  0.00  0.00    -0.045 A 
ATOM     11  CD1 PHE A   1     -11.182  -2.072  44.395  0.00  0.00    +0.003 A 
ATOM     12  CE1 PHE A   1     -10.689  -3.051  43.526  0.00  0.00    +0.000 A 
ATOM     13  CZ  PHE A   1      -9.884  -4.082  44.017  0.00  0.00    +0.000 A 
ATOM     14  CE2 PHE A   1      -9.572  -4.139  45.378  0.00  0.00    +0.000 A 
ATOM     15  CD2 PHE A   1     -10.062  -3.162  46.250  0.00  0.00    +0.003 A 
ENDBRANCH   9  10
ENDBRANCH   1   9
TORSDOF 5
ENDMDL
