MODEL 1
REMARK VINA RESULT:      -6.2      0.000      0.000
REMARK  Name = peptide_17_ECYSRCYDQK
REMARK  5 active torsions:
REMARK  status: ('A' for Active; 'I' for Inactive)
REMARK    1  A    between atoms: N_1  and  CA_2
REMARK    2  A    between atoms: CA_2  and  CB_3
REMARK    3  A    between atoms: CA_2  and  C_13
REMARK    4  A    between atoms: CB_3  and  CG_4
REMARK    5  A    between atoms: C_13  and  OXT_15
REMARK                            x       y       z     vdW  Elec       q    Type
REMARK                         _______ _______ _______ _____ _____    ______ ____
ROOT
ATOM      1  CG  TRP A   1      18.353   5.313   9.124  0.00  0.00    -0.020 A 
ATOM      2  CD1 TRP A   1      18.141   3.937   9.111  0.00  0.00    +0.087 A 
ATOM      3  NE1 TRP A   1      19.322   3.278   9.149  0.00  0.00    -0.360 N 
ATOM      4  CE2 TRP A   1      20.276   4.226   9.174  0.00  0.00    +0.047 A 
ATOM      5  CZ2 TRP A   1      21.657   4.035   9.197  0.00  0.00    +0.026 A 
ATOM      6  CH2 TRP A   1      22.479   5.177   9.200  0.00  0.00    +0.002 A 
ATOM      7  CZ3 TRP A   1      21.908   6.469   9.176  0.00  0.00    +0.001 A 
ATOM      8  CE3 TRP A   1      20.511   6.631   9.151  0.00  0.00    +0.010 A 
ATOM      9  CD2 TRP A   1      19.723   5.481   9.154  0.00  0.00    +0.003 A 
ATOM     10  HE1 TRP A   1      19.461   2.244   9.145  0.00  0.00    +0.165 HD
ENDROOT
BRANCH   1  11
ATOM     11  CB  TRP A   1      17.301   6.382   9.019  0.00  0.00    +0.067 C 
BRANCH  11  12
ATOM     12  CA  TRP A   1      16.188   6.186  10.067  0.00  0.00    +0.165 C 
BRANCH  12  13
ATOM     13  N   TRP A   1      14.993   6.956   9.713  0.00  0.00    -0.318 NA
ATOM     14  H1  TRP A   1      14.513   7.250  10.595  0.00  0.00    +0.119 HD
ATOM     15  H2  TRP A   1      14.326   6.345   9.187  0.00  0.00    +0.119 HD
ENDBRANCH  12  13
BRANCH  12  16
ATOM     16  C   TRP A   1      16.656   6.584  11.440  0.00  0.00    +0.322 C 
ATOM     17  O   TRP A   1      17.353   7.622  11.601  0.00  0.00    -0.249 OA
BRANCH  16  18
ATOM     18  OXT TRP A   1      16.343   5.783  12.535  0.00  0.00    -0.479 OA
ATOM     19  HXT TRP A   1      15.416   5.799  12.942  0.00  0.00    +0.295 HD
ENDBRANCH  16  18
ENDBRANCH  12  16
ENDBRANCH  11  12
ENDBRANCH   1  11
TORSDOF 5
ENDMDL
MODEL 2
REMARK VINA RESULT:      -6.1     46.073     47.319
REMARK  Name = peptide_17_ECYSRCYDQK
REMARK  5 active torsions:
REMARK  status: ('A' for Active; 'I' for Inactive)
REMARK    1  A    between atoms: N_1  and  CA_2
REMARK    2  A    between atoms: CA_2  and  CB_3
REMARK    3  A    between atoms: CA_2  and  C_13
REMARK    4  A    between atoms: CB_3  and  CG_4
REMARK    5  A    between atoms: C_13  and  OXT_15
REMARK                            x       y       z     vdW  Elec       q    Type
REMARK                         _______ _______ _______ _____ _____    ______ ____
ROOT
ATOM      1  CG  TRP A   1      -9.374  -0.245  47.805  0.00  0.00    -0.020 A 
ATOM      2  CD1 TRP A   1      -9.780   1.086  47.794  0.00  0.00    +0.087 A 
ATOM      3  NE1 TRP A   1      -8.712   1.907  47.914  0.00  0.00    -0.360 N 
ATOM      4  CE2 TRP A   1      -7.637   1.105  48.013  0.00  0.00    +0.047 A 
ATOM      5  CZ2 TRP A   1      -6.307   1.490  48.172  0.00  0.00    +0.026 A 
ATOM      6  CH2 TRP A   1      -5.336   0.477  48.274  0.00  0.00    +0.002 A 
ATOM      7  CZ3 TRP A   1      -5.713  -0.883  48.218  0.00  0.00    +0.001 A 
ATOM      8  CE3 TRP A   1      -7.063  -1.243  48.059  0.00  0.00    +0.010 A 
ATOM      9  CD2 TRP A   1      -8.001  -0.216  47.955  0.00  0.00    +0.003 A 
ATOM     10  HE1 TRP A   1      -8.725   2.950  47.940  0.00  0.00    +0.165 HD
ENDROOT
BRANCH   1  11
ATOM     11  CB  TRP A   1     -10.266  -1.454  47.767  0.00  0.00    +0.067 C 
BRANCH  11  12
ATOM     12  CA  TRP A   1     -11.604  -1.150  47.065  0.00  0.00    +0.165 C 
BRANCH  12  13
ATOM     13  N   TRP A   1     -12.731  -1.693  47.826  0.00  0.00    -0.318 NA
ATOM     14  H1  TRP A   1     -12.354  -2.251  48.627  0.00  0.00    +0.119 HD
ATOM     15  H2  TRP A   1     -13.277  -2.350  47.222  0.00  0.00    +0.119 HD
ENDBRANCH  12  13
BRANCH  12  16
ATOM     16  C   TRP A   1     -11.625  -1.704  45.667  0.00  0.00    +0.322 C 
ATOM     17  O   TRP A   1     -11.619  -2.950  45.475  0.00  0.00    -0.249 OA
BRANCH  16  18
ATOM     18  OXT TRP A   1     -11.619  -0.835  44.580  0.00  0.00    -0.479 OA
ATOM     19  HXT TRP A   1     -11.044  -0.001  44.584  0.00  0.00    +0.295 HD
ENDBRANCH  16  18
ENDBRANCH  12  16
ENDBRANCH  11  12
ENDBRANCH   1  11
TORSDOF 5
ENDMDL
MODEL 3
REMARK VINA RESULT:      -5.3     34.182     35.627
REMARK  Name = peptide_17_ECYSRCYDQK
REMARK  5 active torsions:
REMARK  status: ('A' for Active; 'I' for Inactive)
REMARK    1  A    between atoms: N_1  and  CA_2
REMARK    2  A    between atoms: CA_2  and  CB_3
REMARK    3  A    between atoms: CA_2  and  C_13
REMARK    4  A    between atoms: CB_3  and  CG_4
REMARK    5  A    between atoms: C_13  and  OXT_15
REMARK                            x       y       z     vdW  Elec       q    Type
REMARK                         _______ _______ _______ _____ _____    ______ ____
ROOT
ATOM      1  CG  TRP A   1      11.861  -4.102  42.146  0.00  0.00    -0.020 A 
ATOM      2  CD1 TRP A   1      10.827  -3.188  41.964  0.00  0.00    +0.087 A 
ATOM      3  NE1 TRP A   1       9.642  -3.741  42.311  0.00  0.00    -0.360 N 
ATOM      4  CE2 TRP A   1       9.919  -4.999  42.698  0.00  0.00    +0.047 A 
ATOM      5  CZ2 TRP A   1       9.014  -5.969  43.128  0.00  0.00    +0.026 A 
ATOM      6  CH2 TRP A   1       9.521  -7.237  43.469  0.00  0.00    +0.002 A 
ATOM      7  CZ3 TRP A   1      10.905  -7.503  43.371  0.00  0.00    +0.001 A 
ATOM      8  CE3 TRP A   1      11.794  -6.506  42.932  0.00  0.00    +0.010 A 
ATOM      9  CD2 TRP A   1      11.262  -5.258  42.607  0.00  0.00    +0.003 A 
ATOM     10  HE1 TRP A   1       8.704  -3.286  42.270  0.00  0.00    +0.165 HD
ENDROOT
BRANCH   1  11
ATOM     11  CB  TRP A   1      13.310  -3.894  41.807  0.00  0.00    +0.067 C 
BRANCH  11  12
ATOM     12  CA  TRP A   1      13.994  -2.936  42.802  0.00  0.00    +0.165 C 
BRANCH  12  13
ATOM     13  N   TRP A   1      14.953  -2.066  42.119  0.00  0.00    -0.318 NA
ATOM     14  H1  TRP A   1      15.638  -1.707  42.823  0.00  0.00    +0.119 HD
ATOM     15  H2  TRP A   1      14.453  -1.236  41.723  0.00  0.00    +0.119 HD
ENDBRANCH  12  13
BRANCH  12  16
ATOM     16  C   TRP A   1      14.692  -3.695  43.897  0.00  0.00    +0.322 C 
ATOM     17  O   TRP A   1      14.859  -4.940  43.804  0.00  0.00    -0.249 OA
BRANCH  16  18
ATOM     18  OXT TRP A   1      15.128  -3.021  45.035  0.00  0.00    -0.479 OA
ATOM     19  HXT TRP A   1      14.684  -2.159  45.330  0.00  0.00    +0.295 HD
ENDBRANCH  16  18
ENDBRANCH  12  16
ENDBRANCH  11  12
ENDBRANCH   1  11
TORSDOF 5
ENDMDL
MODEL 4
REMARK VINA RESULT:      -5.1     46.308     47.454
REMARK  Name = peptide_17_ECYSRCYDQK
REMARK  5 active torsions:
REMARK  status: ('A' for Active; 'I' for Inactive)
REMARK    1  A    between atoms: N_1  and  CA_2
REMARK    2  A    between atoms: CA_2  and  CB_3
REMARK    3  A    between atoms: CA_2  and  C_13
REMARK    4  A    between atoms: CB_3  and  CG_4
REMARK    5  A    between atoms: C_13  and  OXT_15
REMARK                            x       y       z     vdW  Elec       q    Type
REMARK                         _______ _______ _______ _____ _____    ______ ____
ROOT
ATOM      1  CG  TRP A   1      -8.896  -1.231  47.895  0.00  0.00    -0.020 A 
ATOM      2  CD1 TRP A   1      -8.412  -2.535  47.889  0.00  0.00    +0.087 A 
ATOM      3  NE1 TRP A   1      -7.064  -2.539  48.003  0.00  0.00    -0.360 N 
ATOM      4  CE2 TRP A   1      -6.693  -1.248  48.070  0.00  0.00    +0.047 A 
ATOM      5  CZ2 TRP A   1      -5.397  -0.745  48.175  0.00  0.00    +0.026 A 
ATOM      6  CH2 TRP A   1      -5.234   0.652  48.209  0.00  0.00    +0.002 A 
ATOM      7  CZ3 TRP A   1      -6.358   1.505  48.136  0.00  0.00    +0.001 A 
ATOM      8  CE3 TRP A   1      -7.654   0.970  48.029  0.00  0.00    +0.010 A 
ATOM      9  CD2 TRP A   1      -7.783  -0.419  48.002  0.00  0.00    +0.003 A 
ATOM     10  HE1 TRP A   1      -6.440  -3.376  48.020  0.00  0.00    +0.165 HD
ENDROOT
BRANCH   1  11
ATOM     11  CB  TRP A   1     -10.326  -0.805  47.717  0.00  0.00    +0.067 C 
BRANCH  11  12
ATOM     12  CA  TRP A   1     -11.059  -1.695  46.692  0.00  0.00    +0.165 C 
BRANCH  12  13
ATOM     13  N   TRP A   1     -11.427  -0.928  45.500  0.00  0.00    -0.318 NA
ATOM     14  H1  TRP A   1     -11.153   0.071  45.649  0.00  0.00    +0.119 HD
ATOM     15  H2  TRP A   1     -12.466  -0.949  45.378  0.00  0.00    +0.119 HD
ENDBRANCH  12  13
BRANCH  12  16
ATOM     16  C   TRP A   1     -12.289  -2.317  47.293  0.00  0.00    +0.322 C 
ATOM     17  O   TRP A   1     -13.042  -3.045  46.592  0.00  0.00    -0.249 OA
BRANCH  16  18
ATOM     18  OXT TRP A   1     -12.614  -2.061  48.622  0.00  0.00    -0.479 OA
ATOM     19  HXT TRP A   1     -13.455  -2.447  49.035  0.00  0.00    +0.295 HD
ENDBRANCH  16  18
ENDBRANCH  12  16
ENDBRANCH  11  12
ENDBRANCH   1  11
TORSDOF 5
ENDMDL
MODEL 5
REMARK VINA RESULT:      -5.1     21.586     23.043
REMARK  Name = peptide_17_ECYSRCYDQK
REMARK  5 active torsions:
REMARK  status: ('A' for Active; 'I' for Inactive)
REMARK    1  A    between atoms: N_1  and  CA_2
REMARK    2  A    between atoms: CA_2  and  CB_3
REMARK    3  A    between atoms: CA_2  and  C_13
REMARK    4  A    between atoms: CB_3  and  CG_4
REMARK    5  A    between atoms: C_13  and  OXT_15
REMARK                            x       y       z     vdW  Elec       q    Type
REMARK                         _______ _______ _______ _____ _____    ______ ____
ROOT
ATOM      1  CG  TRP A   1       2.558  -0.181  24.202  0.00  0.00    -0.020 A 
ATOM      2  CD1 TRP A   1       3.578   0.763  24.142  0.00  0.00    +0.087 A 
ATOM      3  NE1 TRP A   1       4.785   0.159  24.234  0.00  0.00    -0.360 N 
ATOM      4  CE2 TRP A   1       4.534  -1.155  24.363  0.00  0.00    +0.047 A 
ATOM      5  CZ2 TRP A   1       5.465  -2.183  24.511  0.00  0.00    +0.026 A 
ATOM      6  CH2 TRP A   1       4.979  -3.496  24.652  0.00  0.00    +0.002 A 
ATOM      7  CZ3 TRP A   1       3.589  -3.748  24.645  0.00  0.00    +0.001 A 
ATOM      8  CE3 TRP A   1       2.673  -2.692  24.496  0.00  0.00    +0.010 A 
ATOM      9  CD2 TRP A   1       3.186  -1.402  24.353  0.00  0.00    +0.003 A 
ATOM     10  HE1 TRP A   1       5.720   0.625  24.222  0.00  0.00    +0.165 HD
ENDROOT
BRANCH   1  11
ATOM     11  CB  TRP A   1       1.080   0.095  24.207  0.00  0.00    +0.067 C 
BRANCH  11  12
ATOM     12  CA  TRP A   1       0.684   1.038  25.361  0.00  0.00    +0.165 C 
BRANCH  12  13
ATOM     13  N   TRP A   1      -0.017   0.306  26.418  0.00  0.00    -0.318 NA
ATOM     14  H1  TRP A   1      -0.674  -0.376  25.972  0.00  0.00    +0.119 HD
ATOM     15  H2  TRP A   1      -0.598   0.972  26.979  0.00  0.00    +0.119 HD
ENDBRANCH  12  13
BRANCH  12  16
ATOM     16  C   TRP A   1      -0.180   2.167  24.870  0.00  0.00    +0.322 C 
ATOM     17  O   TRP A   1      -1.347   2.320  25.321  0.00  0.00    -0.249 OA
BRANCH  16  18
ATOM     18  OXT TRP A   1       0.302   3.028  23.888  0.00  0.00    -0.479 OA
ATOM     19  HXT TRP A   1      -0.071   3.002  22.946  0.00  0.00    +0.295 HD
ENDBRANCH  16  18
ENDBRANCH  12  16
ENDBRANCH  11  12
ENDBRANCH   1  11
TORSDOF 5
ENDMDL
MODEL 6
REMARK VINA RESULT:      -5.1     18.068     19.134
REMARK  Name = peptide_17_ECYSRCYDQK
REMARK  5 active torsions:
REMARK  status: ('A' for Active; 'I' for Inactive)
REMARK    1  A    between atoms: N_1  and  CA_2
REMARK    2  A    between atoms: CA_2  and  CB_3
REMARK    3  A    between atoms: CA_2  and  C_13
REMARK    4  A    between atoms: CB_3  and  CG_4
REMARK    5  A    between atoms: C_13  and  OXT_15
REMARK                            x       y       z     vdW  Elec       q    Type
REMARK                         _______ _______ _______ _____ _____    ______ ____
ROOT
ATOM      1  CG  TRP A   1       8.728   8.286  25.242  0.00  0.00    -0.020 A 
ATOM      2  CD1 TRP A   1      10.098   8.410  25.028  0.00  0.00    +0.087 A 
ATOM      3  NE1 TRP A   1      10.742   7.294  25.441  0.00  0.00    -0.360 N 
ATOM      4  CE2 TRP A   1       9.792   6.474  25.924  0.00  0.00    +0.047 A 
ATOM      5  CZ2 TRP A   1       9.972   5.209  26.482  0.00  0.00    +0.026 A 
ATOM      6  CH2 TRP A   1       8.833   4.527  26.947  0.00  0.00    +0.002 A 
ATOM      7  CZ3 TRP A   1       7.554   5.119  26.847  0.00  0.00    +0.001 A 
ATOM      8  CE3 TRP A   1       7.403   6.398  26.281  0.00  0.00    +0.010 A 
ATOM      9  CD2 TRP A   1       8.550   7.047  25.824  0.00  0.00    +0.003 A 
ATOM     10  HE1 TRP A   1      11.770   7.117  25.405  0.00  0.00    +0.165 HD
ENDROOT
BRANCH   1  11
ATOM     11  CB  TRP A   1       7.683   9.335  24.986  0.00  0.00    +0.067 C 
BRANCH  11  12
ATOM     12  CA  TRP A   1       7.036   9.163  23.597  0.00  0.00    +0.165 C 
BRANCH  12  13
ATOM     13  N   TRP A   1       6.878  10.456  22.927  0.00  0.00    -0.318 NA
ATOM     14  H1  TRP A   1       6.063  10.954  23.353  0.00  0.00    +0.119 HD
ATOM     15  H2  TRP A   1       6.653  10.302  21.917  0.00  0.00    +0.119 HD
ENDBRANCH  12  13
BRANCH  12  16
ATOM     16  C   TRP A   1       5.699   8.481  23.699  0.00  0.00    +0.322 C 
ATOM     17  O   TRP A   1       4.708   9.090  24.185  0.00  0.00    -0.249 OA
BRANCH  16  18
ATOM     18  OXT TRP A   1       5.565   7.159  23.284  0.00  0.00    -0.479 OA
ATOM     19  HXT TRP A   1       6.130   6.793  22.527  0.00  0.00    +0.295 HD
ENDBRANCH  16  18
ENDBRANCH  12  16
ENDBRANCH  11  12
ENDBRANCH   1  11
TORSDOF 5
ENDMDL
MODEL 7
REMARK VINA RESULT:      -5.1     32.817     34.589
REMARK  Name = peptide_17_ECYSRCYDQK
REMARK  5 active torsions:
REMARK  status: ('A' for Active; 'I' for Inactive)
REMARK    1  A    between atoms: N_1  and  CA_2
REMARK    2  A    between atoms: CA_2  and  CB_3
REMARK    3  A    between atoms: CA_2  and  C_13
REMARK    4  A    between atoms: CB_3  and  CG_4
REMARK    5  A    between atoms: C_13  and  OXT_15
REMARK                            x       y       z     vdW  Elec       q    Type
REMARK                         _______ _______ _______ _____ _____    ______ ____
ROOT
ATOM      1  CG  TRP A   1      12.255  -3.855  42.369  0.00  0.00    -0.020 A 
ATOM      2  CD1 TRP A   1      11.207  -2.996  42.052  0.00  0.00    +0.087 A 
ATOM      3  NE1 TRP A   1      10.021  -3.638  42.161  0.00  0.00    -0.360 N 
ATOM      4  CE2 TRP A   1      10.313  -4.897  42.533  0.00  0.00    +0.047 A 
ATOM      5  CZ2 TRP A   1       9.418  -5.942  42.754  0.00  0.00    +0.026 A 
ATOM      6  CH2 TRP A   1       9.945  -7.194  43.120  0.00  0.00    +0.002 A 
ATOM      7  CZ3 TRP A   1      11.340  -7.372  43.253  0.00  0.00    +0.001 A 
ATOM      8  CE3 TRP A   1      12.220  -6.299  43.022  0.00  0.00    +0.010 A 
ATOM      9  CD2 TRP A   1      11.667  -5.069  42.666  0.00  0.00    +0.003 A 
ATOM     10  HE1 TRP A   1       9.075  -3.238  41.978  0.00  0.00    +0.165 HD
ENDROOT
BRANCH   1  11
ATOM     11  CB  TRP A   1      13.723  -3.542  42.298  0.00  0.00    +0.067 C 
BRANCH  11  12
ATOM     12  CA  TRP A   1      14.252  -3.631  40.852  0.00  0.00    +0.165 C 
BRANCH  12  13
ATOM     13  N   TRP A   1      15.099  -4.813  40.676  0.00  0.00    -0.318 NA
ATOM     14  H1  TRP A   1      16.024  -4.505  40.293  0.00  0.00    +0.119 HD
ATOM     15  H2  TRP A   1      14.668  -5.451  39.968  0.00  0.00    +0.119 HD
ENDBRANCH  12  13
BRANCH  12  16
ATOM     16  C   TRP A   1      15.023  -2.396  40.477  0.00  0.00    +0.322 C 
ATOM     17  O   TRP A   1      15.392  -1.580  41.364  0.00  0.00    -0.249 OA
BRANCH  16  18
ATOM     18  OXT TRP A   1      15.304  -2.137  39.138  0.00  0.00    -0.479 OA
ATOM     19  HXT TRP A   1      14.562  -1.914  38.486  0.00  0.00    +0.295 HD
ENDBRANCH  16  18
ENDBRANCH  12  16
ENDBRANCH  11  12
ENDBRANCH   1  11
TORSDOF 5
ENDMDL
MODEL 8
REMARK VINA RESULT:      -5.0     46.099     47.387
REMARK  Name = peptide_17_ECYSRCYDQK
REMARK  5 active torsions:
REMARK  status: ('A' for Active; 'I' for Inactive)
REMARK    1  A    between atoms: N_1  and  CA_2
REMARK    2  A    between atoms: CA_2  and  CB_3
REMARK    3  A    between atoms: CA_2  and  C_13
REMARK    4  A    between atoms: CB_3  and  CG_4
REMARK    5  A    between atoms: C_13  and  OXT_15
REMARK                            x       y       z     vdW  Elec       q    Type
REMARK                         _______ _______ _______ _____ _____    ______ ____
ROOT
ATOM      1  CG  TRP A   1      -7.804  -2.236  48.365  0.00  0.00    -0.020 A 
ATOM      2  CD1 TRP A   1      -7.268  -3.358  48.989  0.00  0.00    +0.087 A 
ATOM      3  NE1 TRP A   1      -5.993  -3.120  49.375  0.00  0.00    -0.360 N 
ATOM      4  CE2 TRP A   1      -5.718  -1.861  48.989  0.00  0.00    +0.047 A 
ATOM      5  CZ2 TRP A   1      -4.517  -1.171  49.151  0.00  0.00    +0.026 A 
ATOM      6  CH2 TRP A   1      -4.440   0.141  48.650  0.00  0.00    +0.002 A 
ATOM      7  CZ3 TRP A   1      -5.551   0.727  48.004  0.00  0.00    +0.001 A 
ATOM      8  CE3 TRP A   1      -6.750   0.006  47.853  0.00  0.00    +0.010 A 
ATOM      9  CD2 TRP A   1      -6.797  -1.291  48.365  0.00  0.00    +0.003 A 
ATOM     10  HE1 TRP A   1      -5.352  -3.785  49.860  0.00  0.00    +0.165 HD
ENDROOT
BRANCH   1  11
ATOM     11  CB  TRP A   1      -9.163  -2.126  47.734  0.00  0.00    +0.067 C 
BRANCH  11  12
ATOM     12  CA  TRP A   1     -10.119  -1.272  48.590  0.00  0.00    +0.165 C 
BRANCH  12  13
ATOM     13  N   TRP A   1     -11.324  -2.026  48.942  0.00  0.00    -0.318 NA
ATOM     14  H1  TRP A   1     -11.743  -1.602  49.802  0.00  0.00    +0.119 HD
ATOM     15  H2  TRP A   1     -11.063  -3.011  49.180  0.00  0.00    +0.119 HD
ENDBRANCH  12  13
BRANCH  12  16
ATOM     16  C   TRP A   1     -10.507  -0.006  47.876  0.00  0.00    +0.322 C 
ATOM     17  O   TRP A   1     -10.828   1.023  48.530  0.00  0.00    -0.249 OA
BRANCH  16  18
ATOM     18  OXT TRP A   1     -10.540   0.019  46.485  0.00  0.00    -0.479 OA
ATOM     19  HXT TRP A   1      -9.839  -0.469  45.939  0.00  0.00    +0.295 HD
ENDBRANCH  16  18
ENDBRANCH  12  16
ENDBRANCH  11  12
ENDBRANCH   1  11
TORSDOF 5
ENDMDL
MODEL 9
REMARK VINA RESULT:      -5.0     21.447     23.293
REMARK  Name = peptide_17_ECYSRCYDQK
REMARK  5 active torsions:
REMARK  status: ('A' for Active; 'I' for Inactive)
REMARK    1  A    between atoms: N_1  and  CA_2
REMARK    2  A    between atoms: CA_2  and  CB_3
REMARK    3  A    between atoms: CA_2  and  C_13
REMARK    4  A    between atoms: CB_3  and  CG_4
REMARK    5  A    between atoms: C_13  and  OXT_15
REMARK                            x       y       z     vdW  Elec       q    Type
REMARK                         _______ _______ _______ _____ _____    ______ ____
ROOT
ATOM      1  CG  TRP A   1       4.584  -3.398  25.705  0.00  0.00    -0.020 A 
ATOM      2  CD1 TRP A   1       3.608  -4.380  25.848  0.00  0.00    +0.087 A 
ATOM      3  NE1 TRP A   1       3.636  -4.895  27.099  0.00  0.00    -0.360 N 
ATOM      4  CE2 TRP A   1       4.629  -4.255  27.741  0.00  0.00    +0.047 A 
ATOM      5  CZ2 TRP A   1       5.054  -4.457  29.054  0.00  0.00    +0.026 A 
ATOM      6  CH2 TRP A   1       6.134  -3.685  29.522  0.00  0.00    +0.002 A 
ATOM      7  CZ3 TRP A   1       6.759  -2.743  28.676  0.00  0.00    +0.001 A 
ATOM      8  CE3 TRP A   1       6.310  -2.562  27.355  0.00  0.00    +0.010 A 
ATOM      9  CD2 TRP A   1       5.235  -3.337  26.922  0.00  0.00    +0.003 A 
ATOM     10  HE1 TRP A   1       3.021  -5.648  27.479  0.00  0.00    +0.165 HD
ENDROOT
BRANCH   1  11
ATOM     11  CB  TRP A   1       4.919  -2.644  24.449  0.00  0.00    +0.067 C 
BRANCH  11  12
ATOM     12  CA  TRP A   1       3.792  -1.668  24.057  0.00  0.00    +0.165 C 
BRANCH  12  13
ATOM     13  N   TRP A   1       3.387  -1.868  22.664  0.00  0.00    -0.318 NA
ATOM     14  H1  TRP A   1       2.519  -1.311  22.486  0.00  0.00    +0.119 HD
ATOM     15  H2  TRP A   1       3.145  -2.874  22.511  0.00  0.00    +0.119 HD
ENDBRANCH  12  13
BRANCH  12  16
ATOM     16  C   TRP A   1       4.214  -0.239  24.260  0.00  0.00    +0.322 C 
ATOM     17  O   TRP A   1       3.723   0.679  23.548  0.00  0.00    -0.249 OA
BRANCH  16  18
ATOM     18  OXT TRP A   1       5.175   0.068  25.219  0.00  0.00    -0.479 OA
ATOM     19  HXT TRP A   1       5.363  -0.565  25.988  0.00  0.00    +0.295 HD
ENDBRANCH  16  18
ENDBRANCH  12  16
ENDBRANCH  11  12
ENDBRANCH   1  11
TORSDOF 5
ENDMDL
