MODEL 1
REMARK VINA RESULT:      -5.1      0.000      0.000
REMARK  Name = peptide_26_AYRPQMEKAN
REMARK  6 active torsions:
REMARK  status: ('A' for Active; 'I' for Inactive)
REMARK    1  A    between atoms: N_1  and  CA_2
REMARK    2  A    between atoms: CA_2  and  CB_3
REMARK    3  A    between atoms: CA_2  and  C_11
REMARK    4  A    between atoms: CB_3  and  CG_4
REMARK    5  A    between atoms: CZ_7  and  OH_8
REMARK    6  A    between atoms: C_11  and  OXT_13
REMARK                            x       y       z     vdW  Elec       q    Type
REMARK                         _______ _______ _______ _____ _____    ______ ____
ROOT
ATOM      1  CB  TYR A   1     -10.827  -2.208  47.814  0.00  0.00    +0.065 C 
ENDROOT
BRANCH   1   2
ATOM      2  CG  TYR A   1      -9.867  -1.049  47.880  0.00  0.00    -0.045 A 
ATOM      3  CD1 TYR A   1      -8.485  -1.274  47.990  0.00  0.00    +0.007 A 
ATOM      4  CE1 TYR A   1      -7.599  -0.196  48.078  0.00  0.00    +0.045 A 
ATOM      5  CZ  TYR A   1      -8.084   1.116  48.067  0.00  0.00    +0.117 A 
ATOM      6  CE2 TYR A   1      -9.462   1.347  47.967  0.00  0.00    +0.045 A 
ATOM      7  CD2 TYR A   1     -10.350   0.270  47.879  0.00  0.00    +0.007 A 
BRANCH   5   8
ATOM      8  OH  TYR A   1      -7.190   2.181  48.156  0.00  0.00    -0.507 OA
ATOM      9  HH  TYR A   1      -6.214   2.034  48.385  0.00  0.00    +0.292 HD
ENDBRANCH   5   8
ENDBRANCH   1   2
BRANCH   1  10
ATOM     10  CA  TYR A   1     -11.918  -1.972  46.755  0.00  0.00    +0.165 C 
BRANCH  10  11
ATOM     11  N   TYR A   1     -12.993  -2.958  46.892  0.00  0.00    -0.318 NA
ATOM     12  H1  TYR A   1     -13.899  -2.466  47.077  0.00  0.00    +0.119 HD
ATOM     13  H2  TYR A   1     -12.790  -3.563  47.721  0.00  0.00    +0.119 HD
ENDBRANCH  10  11
BRANCH  10  14
ATOM     14  C   TYR A   1     -11.327  -2.015  45.371  0.00  0.00    +0.322 C 
ATOM     15  O   TYR A   1     -10.588  -2.975  45.022  0.00  0.00    -0.249 OA
BRANCH  14  16
ATOM     16  OXT TYR A   1     -11.595  -0.987  44.472  0.00  0.00    -0.479 OA
ATOM     17  HXT TYR A   1     -12.485  -0.936  43.990  0.00  0.00    +0.295 HD
ENDBRANCH  14  16
ENDBRANCH  10  14
ENDBRANCH   1  10
TORSDOF 6
ENDMDL
MODEL 2
REMARK VINA RESULT:      -5.0     25.588     26.404
REMARK  Name = peptide_26_AYRPQMEKAN
REMARK  6 active torsions:
REMARK  status: ('A' for Active; 'I' for Inactive)
REMARK    1  A    between atoms: N_1  and  CA_2
REMARK    2  A    between atoms: CA_2  and  CB_3
REMARK    3  A    between atoms: CA_2  and  C_11
REMARK    4  A    between atoms: CB_3  and  CG_4
REMARK    5  A    between atoms: CZ_7  and  OH_8
REMARK    6  A    between atoms: C_11  and  OXT_13
REMARK                            x       y       z     vdW  Elec       q    Type
REMARK                         _______ _______ _______ _____ _____    ______ ____
ROOT
ATOM      1  CB  TYR A   1       5.960  -3.631  26.993  0.00  0.00    +0.065 C 
ENDROOT
BRANCH   1   2
ATOM      2  CG  TYR A   1       5.471  -2.766  25.862  0.00  0.00    -0.045 A 
ATOM      3  CD1 TYR A   1       5.947  -1.453  25.711  0.00  0.00    +0.007 A 
ATOM      4  CE1 TYR A   1       5.470  -0.644  24.676  0.00  0.00    +0.045 A 
ATOM      5  CZ  TYR A   1       4.507  -1.133  23.787  0.00  0.00    +0.117 A 
ATOM      6  CE2 TYR A   1       4.021  -2.438  23.938  0.00  0.00    +0.045 A 
ATOM      7  CD2 TYR A   1       4.497  -3.250  24.972  0.00  0.00    +0.007 A 
BRANCH   5   8
ATOM      8  OH  TYR A   1       4.040  -0.315  22.760  0.00  0.00    -0.507 OA
ATOM      9  HH  TYR A   1       3.049  -0.190  22.593  0.00  0.00    +0.292 HD
ENDBRANCH   5   8
ENDBRANCH   1   2
BRANCH   1  10
ATOM     10  CA  TYR A   1       6.853  -2.835  27.961  0.00  0.00    +0.165 C 
BRANCH  10  11
ATOM     11  N   TYR A   1       8.265  -3.172  27.759  0.00  0.00    -0.318 NA
ATOM     12  H1  TYR A   1       8.367  -3.751  26.893  0.00  0.00    +0.119 HD
ATOM     13  H2  TYR A   1       8.590  -3.754  28.565  0.00  0.00    +0.119 HD
ENDBRANCH  10  11
BRANCH  10  14
ATOM     14  C   TYR A   1       6.443  -3.089  29.388  0.00  0.00    +0.322 C 
ATOM     15  O   TYR A   1       5.891  -4.176  29.709  0.00  0.00    -0.249 OA
BRANCH  14  16
ATOM     16  OXT TYR A   1       6.671  -2.117  30.357  0.00  0.00    -0.479 OA
ATOM     17  HXT TYR A   1       7.066  -1.218  30.107  0.00  0.00    +0.295 HD
ENDBRANCH  14  16
ENDBRANCH  10  14
ENDBRANCH   1  10
TORSDOF 6
ENDMDL
MODEL 3
REMARK VINA RESULT:      -5.0     46.284     46.978
REMARK  Name = peptide_26_AYRPQMEKAN
REMARK  6 active torsions:
REMARK  status: ('A' for Active; 'I' for Inactive)
REMARK    1  A    between atoms: N_1  and  CA_2
REMARK    2  A    between atoms: CA_2  and  CB_3
REMARK    3  A    between atoms: CA_2  and  C_11
REMARK    4  A    between atoms: CB_3  and  CG_4
REMARK    5  A    between atoms: CZ_7  and  OH_8
REMARK    6  A    between atoms: C_11  and  OXT_13
REMARK                            x       y       z     vdW  Elec       q    Type
REMARK                         _______ _______ _______ _____ _____    ______ ____
ROOT
ATOM      1  CB  TYR A   1      17.192   7.481   9.684  0.00  0.00    +0.065 C 
ENDROOT
BRANCH   1   2
ATOM      2  CG  TYR A   1      18.140   6.328   9.484  0.00  0.00    -0.045 A 
ATOM      3  CD1 TYR A   1      19.525   6.552   9.395  0.00  0.00    +0.007 A 
ATOM      4  CE1 TYR A   1      20.399   5.482   9.182  0.00  0.00    +0.045 A 
ATOM      5  CZ  TYR A   1      19.901   4.182   9.046  0.00  0.00    +0.117 A 
ATOM      6  CE2 TYR A   1      18.521   3.955   9.124  0.00  0.00    +0.045 A 
ATOM      7  CD2 TYR A   1      17.644   5.022   9.337  0.00  0.00    +0.007 A 
BRANCH   5   8
ATOM      8  OH  TYR A   1      20.785   3.126   8.833  0.00  0.00    -0.507 OA
ATOM      9  HH  TYR A   1      20.517   2.313   8.292  0.00  0.00    +0.292 HD
ENDBRANCH   5   8
ENDBRANCH   1   2
BRANCH   1  10
ATOM     10  CA  TYR A   1      16.080   7.124  10.686  0.00  0.00    +0.165 C 
BRANCH  10  11
ATOM     11  N   TYR A   1      15.014   8.129  10.656  0.00  0.00    -0.318 NA
ATOM     12  H1  TYR A   1      14.098   7.663  10.458  0.00  0.00    +0.119 HD
ATOM     13  H2  TYR A   1      15.203   8.795   9.872  0.00  0.00    +0.119 HD
ENDBRANCH  10  11
BRANCH  10  14
ATOM     14  C   TYR A   1      16.646   6.987  12.075  0.00  0.00    +0.322 C 
ATOM     15  O   TYR A   1      17.342   7.912  12.574  0.00  0.00    -0.249 OA
BRANCH  14  16
ATOM     16  OXT TYR A   1      16.401   5.831  12.810  0.00  0.00    -0.479 OA
ATOM     17  HXT TYR A   1      16.283   4.937  12.349  0.00  0.00    +0.295 HD
ENDBRANCH  14  16
ENDBRANCH  10  14
ENDBRANCH   1  10
TORSDOF 6
ENDMDL
MODEL 4
REMARK VINA RESULT:      -4.9      2.215      2.983
REMARK  Name = peptide_26_AYRPQMEKAN
REMARK  6 active torsions:
REMARK  status: ('A' for Active; 'I' for Inactive)
REMARK    1  A    between atoms: N_1  and  CA_2
REMARK    2  A    between atoms: CA_2  and  CB_3
REMARK    3  A    between atoms: CA_2  and  C_11
REMARK    4  A    between atoms: CB_3  and  CG_4
REMARK    5  A    between atoms: CZ_7  and  OH_8
REMARK    6  A    between atoms: C_11  and  OXT_13
REMARK                            x       y       z     vdW  Elec       q    Type
REMARK                         _______ _______ _______ _____ _____    ______ ____
ROOT
ATOM      1  CB  TYR A   1     -10.264   0.069  47.974  0.00  0.00    +0.065 C 
ENDROOT
BRANCH   1   2
ATOM      2  CG  TYR A   1      -8.758   0.063  48.023  0.00  0.00    -0.045 A 
ATOM      3  CD1 TYR A   1      -8.042   1.271  48.053  0.00  0.00    +0.007 A 
ATOM      4  CE1 TYR A   1      -6.644   1.262  48.070  0.00  0.00    +0.045 A 
ATOM      5  CZ  TYR A   1      -5.948   0.048  48.049  0.00  0.00    +0.117 A 
ATOM      6  CE2 TYR A   1      -6.657  -1.159  48.009  0.00  0.00    +0.045 A 
ATOM      7  CD2 TYR A   1      -8.055  -1.152  47.992  0.00  0.00    +0.007 A 
BRANCH   5   8
ATOM      8  OH  TYR A   1      -4.555   0.054  48.065  0.00  0.00    -0.507 OA
ATOM      9  HH  TYR A   1      -4.037   0.493  48.818  0.00  0.00    +0.292 HD
ENDBRANCH   5   8
ENDBRANCH   1   2
BRANCH   1  10
ATOM     10  CA  TYR A   1     -10.807  -1.187  47.271  0.00  0.00    +0.165 C 
BRANCH  10  11
ATOM     11  N   TYR A   1     -11.312  -0.855  45.936  0.00  0.00    -0.318 NA
ATOM     12  H1  TYR A   1     -11.194   0.170  45.761  0.00  0.00    +0.119 HD
ATOM     13  H2  TYR A   1     -12.337  -1.062  45.904  0.00  0.00    +0.119 HD
ENDBRANCH  10  11
BRANCH  10  14
ATOM     14  C   TYR A   1     -11.882  -1.834  48.103  0.00  0.00    +0.322 C 
ATOM     15  O   TYR A   1     -13.087  -1.488  47.971  0.00  0.00    -0.249 OA
BRANCH  14  16
ATOM     16  OXT TYR A   1     -11.543  -2.820  49.026  0.00  0.00    -0.479 OA
ATOM     17  HXT TYR A   1     -11.323  -2.579  49.985  0.00  0.00    +0.295 HD
ENDBRANCH  14  16
ENDBRANCH  10  14
ENDBRANCH   1  10
TORSDOF 6
ENDMDL
MODEL 5
REMARK VINA RESULT:      -4.8     20.913     22.458
REMARK  Name = peptide_26_AYRPQMEKAN
REMARK  6 active torsions:
REMARK  status: ('A' for Active; 'I' for Inactive)
REMARK    1  A    between atoms: N_1  and  CA_2
REMARK    2  A    between atoms: CA_2  and  CB_3
REMARK    3  A    between atoms: CA_2  and  C_11
REMARK    4  A    between atoms: CB_3  and  CG_4
REMARK    5  A    between atoms: CZ_7  and  OH_8
REMARK    6  A    between atoms: C_11  and  OXT_13
REMARK                            x       y       z     vdW  Elec       q    Type
REMARK                         _______ _______ _______ _____ _____    ______ ____
ROOT
ATOM      1  CB  TYR A   1      10.119  -4.404  42.723  0.00  0.00    +0.065 C 
ENDROOT
BRANCH   1   2
ATOM      2  CG  TYR A   1      11.544  -4.364  42.236  0.00  0.00    -0.045 A 
ATOM      3  CD1 TYR A   1      11.937  -3.433  41.259  0.00  0.00    +0.007 A 
ATOM      4  CE1 TYR A   1      13.254  -3.417  40.790  0.00  0.00    +0.045 A 
ATOM      5  CZ  TYR A   1      14.188  -4.334  41.284  0.00  0.00    +0.117 A 
ATOM      6  CE2 TYR A   1      13.799  -5.270  42.250  0.00  0.00    +0.045 A 
ATOM      7  CD2 TYR A   1      12.483  -5.288  42.722  0.00  0.00    +0.007 A 
BRANCH   5   8
ATOM      8  OH  TYR A   1      15.497  -4.307  40.806  0.00  0.00    -0.507 OA
ATOM      9  HH  TYR A   1      16.155  -5.046  41.023  0.00  0.00    +0.292 HD
ENDBRANCH   5   8
ENDBRANCH   1   2
BRANCH   1  10
ATOM     10  CA  TYR A   1       9.627  -5.852  42.899  0.00  0.00    +0.165 C 
BRANCH  10  11
ATOM     11  N   TYR A   1       8.750  -6.239  41.791  0.00  0.00    -0.318 NA
ATOM     12  H1  TYR A   1       8.005  -6.884  42.143  0.00  0.00    +0.119 HD
ATOM     13  H2  TYR A   1       9.314  -6.766  41.085  0.00  0.00    +0.119 HD
ENDBRANCH  10  11
BRANCH  10  14
ATOM     14  C   TYR A   1       8.923  -6.012  44.220  0.00  0.00    +0.322 C 
ATOM     15  O   TYR A   1       8.564  -7.154  44.617  0.00  0.00    -0.249 OA
BRANCH  14  16
ATOM     16  OXT TYR A   1       8.665  -4.894  45.007  0.00  0.00    -0.479 OA
ATOM     17  HXT TYR A   1       9.387  -4.493  45.593  0.00  0.00    +0.295 HD
ENDBRANCH  14  16
ENDBRANCH  10  14
ENDBRANCH   1  10
TORSDOF 6
ENDMDL
MODEL 6
REMARK VINA RESULT:      -4.8     45.888     46.574
REMARK  Name = peptide_26_AYRPQMEKAN
REMARK  6 active torsions:
REMARK  status: ('A' for Active; 'I' for Inactive)
REMARK    1  A    between atoms: N_1  and  CA_2
REMARK    2  A    between atoms: CA_2  and  CB_3
REMARK    3  A    between atoms: CA_2  and  C_11
REMARK    4  A    between atoms: CB_3  and  CG_4
REMARK    5  A    between atoms: CZ_7  and  OH_8
REMARK    6  A    between atoms: C_11  and  OXT_13
REMARK                            x       y       z     vdW  Elec       q    Type
REMARK                         _______ _______ _______ _____ _____    ______ ____
ROOT
ATOM      1  CB  TYR A   1      16.360   6.691  10.182  0.00  0.00    +0.065 C 
ENDROOT
BRANCH   1   2
ATOM      2  CG  TYR A   1      17.533   5.839   9.772  0.00  0.00    -0.045 A 
ATOM      3  CD1 TYR A   1      17.349   4.487   9.437  0.00  0.00    +0.007 A 
ATOM      4  CE1 TYR A   1      18.444   3.693   9.085  0.00  0.00    +0.045 A 
ATOM      5  CZ  TYR A   1      19.733   4.237   9.070  0.00  0.00    +0.117 A 
ATOM      6  CE2 TYR A   1      19.923   5.582   9.413  0.00  0.00    +0.045 A 
ATOM      7  CD2 TYR A   1      18.830   6.378   9.766  0.00  0.00    +0.007 A 
BRANCH   5   8
ATOM      8  OH  TYR A   1      20.815   3.433   8.717  0.00  0.00    -0.507 OA
ATOM      9  HH  TYR A   1      21.502   3.739   8.039  0.00  0.00    +0.292 HD
ENDBRANCH   5   8
ENDBRANCH   1   2
BRANCH   1  10
ATOM     10  CA  TYR A   1      16.551   7.266  11.596  0.00  0.00    +0.165 C 
BRANCH  10  11
ATOM     11  N   TYR A   1      16.477   6.202  12.601  0.00  0.00    -0.318 NA
ATOM     12  H1  TYR A   1      17.103   5.411  12.322  0.00  0.00    +0.119 HD
ATOM     13  H2  TYR A   1      15.498   5.833  12.628  0.00  0.00    +0.119 HD
ENDBRANCH  10  11
BRANCH  10  14
ATOM     14  C   TYR A   1      15.529   8.336  11.874  0.00  0.00    +0.322 C 
ATOM     15  O   TYR A   1      15.054   9.024  10.931  0.00  0.00    -0.249 OA
BRANCH  14  16
ATOM     16  OXT TYR A   1      15.108   8.567  13.180  0.00  0.00    -0.479 OA
ATOM     17  HXT TYR A   1      15.777   8.625  13.939  0.00  0.00    +0.295 HD
ENDBRANCH  14  16
ENDBRANCH  10  14
ENDBRANCH   1  10
TORSDOF 6
ENDMDL
MODEL 7
REMARK VINA RESULT:      -4.8     24.910     25.764
REMARK  Name = peptide_26_AYRPQMEKAN
REMARK  6 active torsions:
REMARK  status: ('A' for Active; 'I' for Inactive)
REMARK    1  A    between atoms: N_1  and  CA_2
REMARK    2  A    between atoms: CA_2  and  CB_3
REMARK    3  A    between atoms: CA_2  and  C_11
REMARK    4  A    between atoms: CB_3  and  CG_4
REMARK    5  A    between atoms: CZ_7  and  OH_8
REMARK    6  A    between atoms: C_11  and  OXT_13
REMARK                            x       y       z     vdW  Elec       q    Type
REMARK                         _______ _______ _______ _____ _____    ______ ____
ROOT
ATOM      1  CB  TYR A   1       0.948   0.223  24.131  0.00  0.00    +0.065 C 
ENDROOT
BRANCH   1   2
ATOM      2  CG  TYR A   1       2.299  -0.434  24.237  0.00  0.00    -0.045 A 
ATOM      3  CD1 TYR A   1       2.404  -1.821  24.433  0.00  0.00    +0.007 A 
ATOM      4  CE1 TYR A   1       3.659  -2.423  24.558  0.00  0.00    +0.045 A 
ATOM      5  CZ  TYR A   1       4.821  -1.647  24.498  0.00  0.00    +0.117 A 
ATOM      6  CE2 TYR A   1       4.723  -0.262  24.313  0.00  0.00    +0.045 A 
ATOM      7  CD2 TYR A   1       3.469   0.343  24.187  0.00  0.00    +0.007 A 
BRANCH   5   8
ATOM      8  OH  TYR A   1       6.066  -2.261  24.625  0.00  0.00    -0.507 OA
ATOM      9  HH  TYR A   1       6.543  -2.309  25.517  0.00  0.00    +0.292 HD
ENDBRANCH   5   8
ENDBRANCH   1   2
BRANCH   1  10
ATOM     10  CA  TYR A   1       0.696   1.180  25.310  0.00  0.00    +0.165 C 
BRANCH  10  11
ATOM     11  N   TYR A   1       0.187   0.447  26.472  0.00  0.00    -0.318 NA
ATOM     12  H1  TYR A   1       0.325  -0.580  26.327  0.00  0.00    +0.119 HD
ATOM     13  H2  TYR A   1      -0.843   0.618  26.551  0.00  0.00    +0.119 HD
ENDBRANCH  10  11
BRANCH  10  14
ATOM     14  C   TYR A   1      -0.258   2.273  24.907  0.00  0.00    +0.322 C 
ATOM     15  O   TYR A   1      -1.437   2.286  25.352  0.00  0.00    -0.249 OA
BRANCH  14  16
ATOM     16  OXT TYR A   1       0.164   3.274  24.037  0.00  0.00    -0.479 OA
ATOM     17  HXT TYR A   1      -0.497   3.755  23.438  0.00  0.00    +0.295 HD
ENDBRANCH  14  16
ENDBRANCH  10  14
ENDBRANCH   1  10
TORSDOF 6
ENDMDL
MODEL 8
REMARK VINA RESULT:      -4.7     27.736     28.680
REMARK  Name = peptide_26_AYRPQMEKAN
REMARK  6 active torsions:
REMARK  status: ('A' for Active; 'I' for Inactive)
REMARK    1  A    between atoms: N_1  and  CA_2
REMARK    2  A    between atoms: CA_2  and  CB_3
REMARK    3  A    between atoms: CA_2  and  C_11
REMARK    4  A    between atoms: CB_3  and  CG_4
REMARK    5  A    between atoms: CZ_7  and  OH_8
REMARK    6  A    between atoms: C_11  and  OXT_13
REMARK                            x       y       z     vdW  Elec       q    Type
REMARK                         _______ _______ _______ _____ _____    ______ ____
ROOT
ATOM      1  CB  TYR A   1       7.025   8.778  25.463  0.00  0.00    +0.065 C 
ENDROOT
BRANCH   1   2
ATOM      2  CG  TYR A   1       7.829   7.529  25.714  0.00  0.00    -0.045 A 
ATOM      3  CD1 TYR A   1       9.175   7.457  25.320  0.00  0.00    +0.007 A 
ATOM      4  CE1 TYR A   1       9.910   6.287  25.530  0.00  0.00    +0.045 A 
ATOM      5  CZ  TYR A   1       9.307   5.174  26.126  0.00  0.00    +0.117 A 
ATOM      6  CE2 TYR A   1       7.962   5.237  26.512  0.00  0.00    +0.045 A 
ATOM      7  CD2 TYR A   1       7.224   6.406  26.303  0.00  0.00    +0.007 A 
BRANCH   5   8
ATOM      8  OH  TYR A   1      10.052   4.014  26.328  0.00  0.00    -0.507 OA
ATOM      9  HH  TYR A   1       9.605   3.128  26.534  0.00  0.00    +0.292 HD
ENDBRANCH   5   8
ENDBRANCH   1   2
BRANCH   1  10
ATOM     10  CA  TYR A   1       5.567   8.609  25.926  0.00  0.00    +0.165 C 
BRANCH  10  11
ATOM     11  N   TYR A   1       4.647   8.731  24.792  0.00  0.00    -0.318 NA
ATOM     12  H1  TYR A   1       3.674   8.504  25.104  0.00  0.00    +0.119 HD
ATOM     13  H2  TYR A   1       4.915   8.028  24.065  0.00  0.00    +0.119 HD
ENDBRANCH  10  11
BRANCH  10  14
ATOM     14  C   TYR A   1       5.233   9.614  26.996  0.00  0.00    +0.322 C 
ATOM     15  O   TYR A   1       5.532   9.387  28.199  0.00  0.00    -0.249 OA
BRANCH  14  16
ATOM     16  OXT TYR A   1       4.588  10.799  26.655  0.00  0.00    -0.479 OA
ATOM     17  HXT TYR A   1       4.620  11.153  25.706  0.00  0.00    +0.295 HD
ENDBRANCH  14  16
ENDBRANCH  10  14
ENDBRANCH   1  10
TORSDOF 6
ENDMDL
MODEL 9
REMARK VINA RESULT:      -4.7     28.921     29.725
REMARK  Name = peptide_26_AYRPQMEKAN
REMARK  6 active torsions:
REMARK  status: ('A' for Active; 'I' for Inactive)
REMARK    1  A    between atoms: N_1  and  CA_2
REMARK    2  A    between atoms: CA_2  and  CB_3
REMARK    3  A    between atoms: CA_2  and  C_11
REMARK    4  A    between atoms: CB_3  and  CG_4
REMARK    5  A    between atoms: CZ_7  and  OH_8
REMARK    6  A    between atoms: C_11  and  OXT_13
REMARK                            x       y       z     vdW  Elec       q    Type
REMARK                         _______ _______ _______ _____ _____    ______ ____
ROOT
ATOM      1  CB  TYR A   1       7.187   8.814  25.388  0.00  0.00    +0.065 C 
ENDROOT
BRANCH   1   2
ATOM      2  CG  TYR A   1       7.923   7.522  25.633  0.00  0.00    -0.045 A 
ATOM      3  CD1 TYR A   1       7.278   6.444  26.262  0.00  0.00    +0.007 A 
ATOM      4  CE1 TYR A   1       7.971   5.256  26.513  0.00  0.00    +0.045 A 
ATOM      5  CZ  TYR A   1       9.316   5.136  26.146  0.00  0.00    +0.117 A 
ATOM      6  CE2 TYR A   1       9.967   6.211  25.527  0.00  0.00    +0.045 A 
ATOM      7  CD2 TYR A   1       9.275   7.400  25.275  0.00  0.00    +0.007 A 
BRANCH   5   8
ATOM      8  OH  TYR A   1       9.995   3.946  26.402  0.00  0.00    -0.507 OA
ATOM      9  HH  TYR A   1       9.753   3.359  27.192  0.00  0.00    +0.292 HD
ENDBRANCH   5   8
ENDBRANCH   1   2
BRANCH   1  10
ATOM     10  CA  TYR A   1       7.058   9.108  23.883  0.00  0.00    +0.165 C 
BRANCH  10  11
ATOM     11  N   TYR A   1       7.200  10.543  23.621  0.00  0.00    -0.318 NA
ATOM     12  H1  TYR A   1       6.955  10.744  22.624  0.00  0.00    +0.119 HD
ATOM     13  H2  TYR A   1       8.202  10.811  23.758  0.00  0.00    +0.119 HD
ENDBRANCH  10  11
BRANCH  10  14
ATOM     14  C   TYR A   1       5.743   8.597  23.357  0.00  0.00    +0.322 C 
ATOM     15  O   TYR A   1       4.836   9.403  23.015  0.00  0.00    -0.249 OA
BRANCH  14  16
ATOM     16  OXT TYR A   1       5.526   7.226  23.251  0.00  0.00    -0.479 OA
ATOM     17  HXT TYR A   1       4.732   6.864  22.736  0.00  0.00    +0.295 HD
ENDBRANCH  14  16
ENDBRANCH  10  14
ENDBRANCH   1  10
TORSDOF 6
ENDMDL
