MODEL 1
REMARK VINA RESULT:      -6.2      0.000      0.000
REMARK  Name = peptide_31_GRHDWEWCSC
REMARK  5 active torsions:
REMARK  status: ('A' for Active; 'I' for Inactive)
REMARK    1  A    between atoms: N_1  and  CA_2
REMARK    2  A    between atoms: CA_2  and  CB_3
REMARK    3  A    between atoms: CA_2  and  C_13
REMARK    4  A    between atoms: CB_3  and  CG_4
REMARK    5  A    between atoms: C_13  and  OXT_15
REMARK                            x       y       z     vdW  Elec       q    Type
REMARK                         _______ _______ _______ _____ _____    ______ ____
ROOT
ATOM      1  CG  TRP A   1      18.365   5.319   9.129  0.00  0.00    -0.020 A 
ATOM      2  CD1 TRP A   1      18.152   3.944   9.118  0.00  0.00    +0.087 A 
ATOM      3  NE1 TRP A   1      19.333   3.283   9.153  0.00  0.00    -0.360 N 
ATOM      4  CE2 TRP A   1      20.287   4.230   9.175  0.00  0.00    +0.047 A 
ATOM      5  CZ2 TRP A   1      21.668   4.037   9.196  0.00  0.00    +0.026 A 
ATOM      6  CH2 TRP A   1      22.492   5.178   9.196  0.00  0.00    +0.002 A 
ATOM      7  CZ3 TRP A   1      21.923   6.471   9.173  0.00  0.00    +0.001 A 
ATOM      8  CE3 TRP A   1      20.526   6.635   9.151  0.00  0.00    +0.010 A 
ATOM      9  CD2 TRP A   1      19.736   5.485   9.157  0.00  0.00    +0.003 A 
ATOM     10  HE1 TRP A   1      19.470   2.248   9.149  0.00  0.00    +0.165 HD
ENDROOT
BRANCH   1  11
ATOM     11  CB  TRP A   1      17.315   6.389   9.026  0.00  0.00    +0.067 C 
BRANCH  11  12
ATOM     12  CA  TRP A   1      16.197   6.188  10.069  0.00  0.00    +0.165 C 
BRANCH  12  13
ATOM     13  N   TRP A   1      15.001   6.952   9.708  0.00  0.00    -0.318 NA
ATOM     14  H1  TRP A   1      15.084   7.248   8.708  0.00  0.00    +0.119 HD
ATOM     15  H2  TRP A   1      14.955   7.824  10.286  0.00  0.00    +0.119 HD
ENDBRANCH  12  13
BRANCH  12  16
ATOM     16  C   TRP A   1      16.656   6.587  11.444  0.00  0.00    +0.322 C 
ATOM     17  O   TRP A   1      17.343   7.631  11.610  0.00  0.00    -0.249 OA
BRANCH  16  18
ATOM     18  OXT TRP A   1      16.347   5.781  12.536  0.00  0.00    -0.479 OA
ATOM     19  HXT TRP A   1      16.828   5.898  13.420  0.00  0.00    +0.295 HD
ENDBRANCH  16  18
ENDBRANCH  12  16
ENDBRANCH  11  12
ENDBRANCH   1  11
TORSDOF 5
ENDMDL
MODEL 2
REMARK VINA RESULT:      -6.0     46.123     47.384
REMARK  Name = peptide_31_GRHDWEWCSC
REMARK  5 active torsions:
REMARK  status: ('A' for Active; 'I' for Inactive)
REMARK    1  A    between atoms: N_1  and  CA_2
REMARK    2  A    between atoms: CA_2  and  CB_3
REMARK    3  A    between atoms: CA_2  and  C_13
REMARK    4  A    between atoms: CB_3  and  CG_4
REMARK    5  A    between atoms: C_13  and  OXT_15
REMARK                            x       y       z     vdW  Elec       q    Type
REMARK                         _______ _______ _______ _____ _____    ______ ____
ROOT
ATOM      1  CG  TRP A   1      -9.425  -0.323  47.760  0.00  0.00    -0.020 A 
ATOM      2  CD1 TRP A   1      -9.863   0.998  47.751  0.00  0.00    +0.087 A 
ATOM      3  NE1 TRP A   1      -8.816   1.842  47.899  0.00  0.00    -0.360 N 
ATOM      4  CE2 TRP A   1      -7.725   1.065  48.013  0.00  0.00    +0.047 A 
ATOM      5  CZ2 TRP A   1      -6.408   1.480  48.202  0.00  0.00    +0.026 A 
ATOM      6  CH2 TRP A   1      -5.415   0.489  48.316  0.00  0.00    +0.002 A 
ATOM      7  CZ3 TRP A   1      -5.759  -0.879  48.241  0.00  0.00    +0.001 A 
ATOM      8  CE3 TRP A   1      -7.097  -1.269  48.052  0.00  0.00    +0.010 A 
ATOM      9  CD2 TRP A   1      -8.057  -0.263  47.937  0.00  0.00    +0.003 A 
ATOM     10  HE1 TRP A   1      -8.854   2.885  47.933  0.00  0.00    +0.165 HD
ENDROOT
BRANCH   1  11
ATOM     11  CB  TRP A   1     -10.287  -1.553  47.694  0.00  0.00    +0.067 C 
BRANCH  11  12
ATOM     12  CA  TRP A   1     -11.662  -1.249  47.066  0.00  0.00    +0.165 C 
BRANCH  12  13
ATOM     13  N   TRP A   1     -12.745  -1.785  47.892  0.00  0.00    -0.318 NA
ATOM     14  H1  TRP A   1     -12.848  -2.805  47.685  0.00  0.00    +0.119 HD
ATOM     15  H2  TRP A   1     -13.648  -1.324  47.628  0.00  0.00    +0.119 HD
ENDBRANCH  12  13
BRANCH  12  16
ATOM     16  C   TRP A   1     -11.761  -1.811  45.675  0.00  0.00    +0.322 C 
ATOM     17  O   TRP A   1     -11.131  -1.275  44.723  0.00  0.00    -0.249 OA
BRANCH  16  18
ATOM     18  OXT TRP A   1     -12.578  -2.912  45.431  0.00  0.00    -0.479 OA
ATOM     19  HXT TRP A   1     -13.550  -2.789  45.169  0.00  0.00    +0.295 HD
ENDBRANCH  16  18
ENDBRANCH  12  16
ENDBRANCH  11  12
ENDBRANCH   1  11
TORSDOF 5
ENDMDL
MODEL 3
REMARK VINA RESULT:      -5.5     45.137     46.774
REMARK  Name = peptide_31_GRHDWEWCSC
REMARK  5 active torsions:
REMARK  status: ('A' for Active; 'I' for Inactive)
REMARK    1  A    between atoms: N_1  and  CA_2
REMARK    2  A    between atoms: CA_2  and  CB_3
REMARK    3  A    between atoms: CA_2  and  C_13
REMARK    4  A    between atoms: CB_3  and  CG_4
REMARK    5  A    between atoms: C_13  and  OXT_15
REMARK                            x       y       z     vdW  Elec       q    Type
REMARK                         _______ _______ _______ _____ _____    ______ ____
ROOT
ATOM      1  CG  TRP A   1      -6.626  -0.229  48.652  0.00  0.00    -0.020 A 
ATOM      2  CD1 TRP A   1      -6.273   1.112  48.541  0.00  0.00    +0.087 A 
ATOM      3  NE1 TRP A   1      -7.336   1.848  48.143  0.00  0.00    -0.360 N 
ATOM      4  CE2 TRP A   1      -8.352   0.981  47.992  0.00  0.00    +0.047 A 
ATOM      5  CZ2 TRP A   1      -9.652   1.266  47.575  0.00  0.00    +0.026 A 
ATOM      6  CH2 TRP A   1     -10.558   0.195  47.466  0.00  0.00    +0.002 A 
ATOM      7  CZ3 TRP A   1     -10.148  -1.122  47.769  0.00  0.00    +0.001 A 
ATOM      8  CE3 TRP A   1      -8.830  -1.381  48.185  0.00  0.00    +0.010 A 
ATOM      9  CD2 TRP A   1      -7.956  -0.298  48.289  0.00  0.00    +0.003 A 
ATOM     10  HE1 TRP A   1      -7.355   2.878  47.974  0.00  0.00    +0.165 HD
ENDROOT
BRANCH   1  11
ATOM     11  CB  TRP A   1      -5.711  -1.371  48.997  0.00  0.00    +0.067 C 
BRANCH  11  12
ATOM     12  CA  TRP A   1      -4.740  -1.687  47.842  0.00  0.00    +0.165 C 
BRANCH  12  13
ATOM     13  N   TRP A   1      -5.363  -2.580  46.862  0.00  0.00    -0.318 NA
ATOM     14  H1  TRP A   1      -5.617  -3.474  47.341  0.00  0.00    +0.119 HD
ATOM     15  H2  TRP A   1      -4.670  -2.816  46.114  0.00  0.00    +0.119 HD
ENDBRANCH  12  13
BRANCH  12  16
ATOM     16  C   TRP A   1      -3.468  -2.307  48.353  0.00  0.00    +0.322 C 
ATOM     17  O   TRP A   1      -3.504  -3.368  49.033  0.00  0.00    -0.249 OA
BRANCH  16  18
ATOM     18  OXT TRP A   1      -2.248  -1.688  48.100  0.00  0.00    -0.479 OA
ATOM     19  HXT TRP A   1      -1.379  -2.205  48.170  0.00  0.00    +0.295 HD
ENDBRANCH  16  18
ENDBRANCH  12  16
ENDBRANCH  11  12
ENDBRANCH   1  11
TORSDOF 5
ENDMDL
MODEL 4
REMARK VINA RESULT:      -5.4      2.536      3.501
REMARK  Name = peptide_31_GRHDWEWCSC
REMARK  5 active torsions:
REMARK  status: ('A' for Active; 'I' for Inactive)
REMARK    1  A    between atoms: N_1  and  CA_2
REMARK    2  A    between atoms: CA_2  and  CB_3
REMARK    3  A    between atoms: CA_2  and  C_13
REMARK    4  A    between atoms: CB_3  and  CG_4
REMARK    5  A    between atoms: C_13  and  OXT_15
REMARK                            x       y       z     vdW  Elec       q    Type
REMARK                         _______ _______ _______ _____ _____    ______ ____
ROOT
ATOM      1  CG  TRP A   1      20.239   7.286   9.288  0.00  0.00    -0.020 A 
ATOM      2  CD1 TRP A   1      20.441   8.612   8.917  0.00  0.00    +0.087 A 
ATOM      3  NE1 TRP A   1      21.727   8.808   8.546  0.00  0.00    -0.360 N 
ATOM      4  CE2 TRP A   1      22.340   7.620   8.691  0.00  0.00    +0.047 A 
ATOM      5  CZ2 TRP A   1      23.681   7.327   8.449  0.00  0.00    +0.026 A 
ATOM      6  CH2 TRP A   1      24.120   6.011   8.687  0.00  0.00    +0.002 A 
ATOM      7  CZ3 TRP A   1      23.219   5.031   9.160  0.00  0.00    +0.001 A 
ATOM      8  CE3 TRP A   1      21.872   5.357   9.397  0.00  0.00    +0.010 A 
ATOM      9  CD2 TRP A   1      21.466   6.668   9.146  0.00  0.00    +0.003 A 
ATOM     10  HE1 TRP A   1      22.156   9.705   8.227  0.00  0.00    +0.165 HD
ENDROOT
BRANCH   1  11
ATOM     11  CB  TRP A   1      18.970   6.690   9.828  0.00  0.00    +0.067 C 
BRANCH  11  12
ATOM     12  CA  TRP A   1      18.211   5.895   8.747  0.00  0.00    +0.165 C 
BRANCH  12  13
ATOM     13  N   TRP A   1      16.897   6.485   8.488  0.00  0.00    -0.318 NA
ATOM     14  H1  TRP A   1      16.892   7.464   8.857  0.00  0.00    +0.119 HD
ATOM     15  H2  TRP A   1      16.164   5.953   9.014  0.00  0.00    +0.119 HD
ENDBRANCH  12  13
BRANCH  12  16
ATOM     16  C   TRP A   1      18.049   4.454   9.144  0.00  0.00    +0.322 C 
ATOM     17  O   TRP A   1      17.210   3.720   8.555  0.00  0.00    -0.249 OA
BRANCH  16  18
ATOM     18  OXT TRP A   1      18.809   3.935  10.189  0.00  0.00    -0.479 OA
ATOM     19  HXT TRP A   1      19.092   2.963  10.192  0.00  0.00    +0.295 HD
ENDBRANCH  16  18
ENDBRANCH  12  16
ENDBRANCH  11  12
ENDBRANCH   1  11
TORSDOF 5
ENDMDL
MODEL 5
REMARK VINA RESULT:      -5.4     18.033     19.140
REMARK  Name = peptide_31_GRHDWEWCSC
REMARK  5 active torsions:
REMARK  status: ('A' for Active; 'I' for Inactive)
REMARK    1  A    between atoms: N_1  and  CA_2
REMARK    2  A    between atoms: CA_2  and  CB_3
REMARK    3  A    between atoms: CA_2  and  C_13
REMARK    4  A    between atoms: CB_3  and  CG_4
REMARK    5  A    between atoms: C_13  and  OXT_15
REMARK                            x       y       z     vdW  Elec       q    Type
REMARK                         _______ _______ _______ _____ _____    ______ ____
ROOT
ATOM      1  CG  TRP A   1       8.478   7.903  25.266  0.00  0.00    -0.020 A 
ATOM      2  CD1 TRP A   1       9.795   8.020  24.830  0.00  0.00    +0.087 A 
ATOM      3  NE1 TRP A   1      10.509   6.927  25.187  0.00  0.00    -0.360 N 
ATOM      4  CE2 TRP A   1       9.657   6.129  25.855  0.00  0.00    +0.047 A 
ATOM      5  CZ2 TRP A   1       9.937   4.893  26.436  0.00  0.00    +0.026 A 
ATOM      6  CH2 TRP A   1       8.894   4.231  27.109  0.00  0.00    +0.002 A 
ATOM      7  CZ3 TRP A   1       7.609   4.814  27.187  0.00  0.00    +0.001 A 
ATOM      8  CE3 TRP A   1       7.356   6.063  26.592  0.00  0.00    +0.010 A 
ATOM      9  CD2 TRP A   1       8.409   6.692  25.928  0.00  0.00    +0.003 A 
ATOM     10  HE1 TRP A   1      11.519   6.751  24.995  0.00  0.00    +0.165 HD
ENDROOT
BRANCH   1  11
ATOM     11  CB  TRP A   1       7.395   8.935  25.130  0.00  0.00    +0.067 C 
BRANCH  11  12
ATOM     12  CA  TRP A   1       7.059   9.213  23.651  0.00  0.00    +0.165 C 
BRANCH  12  13
ATOM     13  N   TRP A   1       7.002  10.653  23.389  0.00  0.00    -0.318 NA
ATOM     14  H1  TRP A   1       7.980  11.021  23.337  0.00  0.00    +0.119 HD
ATOM     15  H2  TRP A   1       6.531  11.136  24.189  0.00  0.00    +0.119 HD
ENDBRANCH  12  13
BRANCH  12  16
ATOM     16  C   TRP A   1       5.755   8.576  23.260  0.00  0.00    +0.322 C 
ATOM     17  O   TRP A   1       4.821   9.275  22.781  0.00  0.00    -0.249 OA
BRANCH  16  18
ATOM     18  OXT TRP A   1       5.567   7.211  23.456  0.00  0.00    -0.479 OA
ATOM     19  HXT TRP A   1       4.655   6.841  23.698  0.00  0.00    +0.295 HD
ENDBRANCH  16  18
ENDBRANCH  12  16
ENDBRANCH  11  12
ENDBRANCH   1  11
TORSDOF 5
ENDMDL
MODEL 6
REMARK VINA RESULT:      -5.2     34.797     36.361
REMARK  Name = peptide_31_GRHDWEWCSC
REMARK  5 active torsions:
REMARK  status: ('A' for Active; 'I' for Inactive)
REMARK    1  A    between atoms: N_1  and  CA_2
REMARK    2  A    between atoms: CA_2  and  CB_3
REMARK    3  A    between atoms: CA_2  and  C_13
REMARK    4  A    between atoms: CB_3  and  CG_4
REMARK    5  A    between atoms: C_13  and  OXT_15
REMARK                            x       y       z     vdW  Elec       q    Type
REMARK                         _______ _______ _______ _____ _____    ______ ____
ROOT
ATOM      1  CG  TRP A   1      10.495  -5.787  43.216  0.00  0.00    -0.020 A 
ATOM      2  CD1 TRP A   1      11.143  -7.009  43.367  0.00  0.00    +0.087 A 
ATOM      3  NE1 TRP A   1      12.412  -6.931  42.906  0.00  0.00    -0.360 N 
ATOM      4  CE2 TRP A   1      12.566  -5.674  42.454  0.00  0.00    +0.047 A 
ATOM      5  CZ2 TRP A   1      13.703  -5.120  41.867  0.00  0.00    +0.026 A 
ATOM      6  CH2 TRP A   1      13.639  -3.779  41.446  0.00  0.00    +0.002 A 
ATOM      7  CZ3 TRP A   1      12.453  -3.031  41.616  0.00  0.00    +0.001 A 
ATOM      8  CE3 TRP A   1      11.320  -3.617  42.210  0.00  0.00    +0.010 A 
ATOM      9  CD2 TRP A   1      11.416  -4.946  42.623  0.00  0.00    +0.003 A 
ATOM     10  HE1 TRP A   1      13.120  -7.698  42.890  0.00  0.00    +0.165 HD
ENDROOT
BRANCH   1  11
ATOM     11  CB  TRP A   1       9.059  -5.488  43.540  0.00  0.00    +0.067 C 
BRANCH  11  12
ATOM     12  CA  TRP A   1       8.356  -6.704  44.177  0.00  0.00    +0.165 C 
BRANCH  12  13
ATOM     13  N   TRP A   1       7.666  -7.502  43.161  0.00  0.00    -0.318 NA
ATOM     14  H1  TRP A   1       7.317  -8.381  43.608  0.00  0.00    +0.119 HD
ATOM     15  H2  TRP A   1       8.345  -7.783  42.416  0.00  0.00    +0.119 HD
ENDBRANCH  12  13
BRANCH  12  16
ATOM     16  C   TRP A   1       7.377  -6.276  45.234  0.00  0.00    +0.322 C 
ATOM     17  O   TRP A   1       6.143  -6.487  45.085  0.00  0.00    -0.249 OA
BRANCH  16  18
ATOM     18  OXT TRP A   1       7.833  -5.615  46.371  0.00  0.00    -0.479 OA
ATOM     19  HXT TRP A   1       8.825  -5.541  46.566  0.00  0.00    +0.295 HD
ENDBRANCH  16  18
ENDBRANCH  12  16
ENDBRANCH  11  12
ENDBRANCH   1  11
TORSDOF 5
ENDMDL
MODEL 7
REMARK VINA RESULT:      -5.2     18.550     20.035
REMARK  Name = peptide_31_GRHDWEWCSC
REMARK  5 active torsions:
REMARK  status: ('A' for Active; 'I' for Inactive)
REMARK    1  A    between atoms: N_1  and  CA_2
REMARK    2  A    between atoms: CA_2  and  CB_3
REMARK    3  A    between atoms: CA_2  and  C_13
REMARK    4  A    between atoms: CB_3  and  CG_4
REMARK    5  A    between atoms: C_13  and  OXT_15
REMARK                            x       y       z     vdW  Elec       q    Type
REMARK                         _______ _______ _______ _____ _____    ______ ____
ROOT
ATOM      1  CG  TRP A   1       8.377   7.993  25.242  0.00  0.00    -0.020 A 
ATOM      2  CD1 TRP A   1       9.717   8.258  24.977  0.00  0.00    +0.087 A 
ATOM      3  NE1 TRP A   1      10.496   7.246  25.423  0.00  0.00    -0.360 N 
ATOM      4  CE2 TRP A   1       9.659   6.351  25.979  0.00  0.00    +0.047 A 
ATOM      5  CZ2 TRP A   1       9.998   5.146  26.593  0.00  0.00    +0.026 A 
ATOM      6  CH2 TRP A   1       8.957   4.366  27.130  0.00  0.00    +0.002 A 
ATOM      7  CZ3 TRP A   1       7.617   4.805  27.043  0.00  0.00    +0.001 A 
ATOM      8  CE3 TRP A   1       7.305   6.026  26.418  0.00  0.00    +0.010 A 
ATOM      9  CD2 TRP A   1       8.358   6.774  25.892  0.00  0.00    +0.003 A 
ATOM     10  HE1 TRP A   1      11.536   7.183  25.361  0.00  0.00    +0.165 HD
ENDROOT
BRANCH   1  11
ATOM     11  CB  TRP A   1       7.212   8.902  24.968  0.00  0.00    +0.067 C 
BRANCH  11  12
ATOM     12  CA  TRP A   1       6.856   9.755  26.203  0.00  0.00    +0.165 C 
BRANCH  12  13
ATOM     13  N   TRP A   1       7.976   9.808  27.144  0.00  0.00    -0.318 NA
ATOM     14  H1  TRP A   1       8.626  10.571  26.845  0.00  0.00    +0.119 HD
ATOM     15  H2  TRP A   1       8.512   8.910  27.102  0.00  0.00    +0.119 HD
ENDBRANCH  12  13
BRANCH  12  16
ATOM     16  C   TRP A   1       5.635   9.221  26.899  0.00  0.00    +0.322 C 
ATOM     17  O   TRP A   1       5.475   9.402  28.136  0.00  0.00    -0.249 OA
BRANCH  16  18
ATOM     18  OXT TRP A   1       4.691   8.495  26.178  0.00  0.00    -0.479 OA
ATOM     19  HXT TRP A   1       3.894   8.074  26.642  0.00  0.00    +0.295 HD
ENDBRANCH  16  18
ENDBRANCH  12  16
ENDBRANCH  11  12
ENDBRANCH   1  11
TORSDOF 5
ENDMDL
MODEL 8
REMARK VINA RESULT:      -5.1      2.050      2.649
REMARK  Name = peptide_31_GRHDWEWCSC
REMARK  5 active torsions:
REMARK  status: ('A' for Active; 'I' for Inactive)
REMARK    1  A    between atoms: N_1  and  CA_2
REMARK    2  A    between atoms: CA_2  and  CB_3
REMARK    3  A    between atoms: CA_2  and  C_13
REMARK    4  A    between atoms: CB_3  and  CG_4
REMARK    5  A    between atoms: C_13  and  OXT_15
REMARK                            x       y       z     vdW  Elec       q    Type
REMARK                         _______ _______ _______ _____ _____    ______ ____
ROOT
ATOM      1  CG  TRP A   1      18.482   6.668   9.951  0.00  0.00    -0.020 A 
ATOM      2  CD1 TRP A   1      18.907   7.990   9.848  0.00  0.00    +0.087 A 
ATOM      3  NE1 TRP A   1      20.175   8.043   9.379  0.00  0.00    -0.360 N 
ATOM      4  CE2 TRP A   1      20.557   6.767   9.198  0.00  0.00    +0.047 A 
ATOM      5  CZ2 TRP A   1      21.795   6.312   8.744  0.00  0.00    +0.026 A 
ATOM      6  CH2 TRP A   1      21.989   4.921   8.647  0.00  0.00    +0.002 A 
ATOM      7  CZ3 TRP A   1      20.955   4.028   9.003  0.00  0.00    +0.001 A 
ATOM      8  CE3 TRP A   1      19.717   4.515   9.459  0.00  0.00    +0.010 A 
ATOM      9  CD2 TRP A   1      19.553   5.898   9.540  0.00  0.00    +0.003 A 
ATOM     10  HE1 TRP A   1      20.743   8.902   9.209  0.00  0.00    +0.165 HD
ENDROOT
BRANCH   1  11
ATOM     11  CB  TRP A   1      17.167   6.190  10.497  0.00  0.00    +0.067 C 
BRANCH  11  12
ATOM     12  CA  TRP A   1      16.826   6.875  11.836  0.00  0.00    +0.165 C 
BRANCH  12  13
ATOM     13  N   TRP A   1      16.506   5.885  12.865  0.00  0.00    -0.318 NA
ATOM     14  H1  TRP A   1      15.465   5.795  12.930  0.00  0.00    +0.119 HD
ATOM     15  H2  TRP A   1      16.845   6.224  13.795  0.00  0.00    +0.119 HD
ENDBRANCH  12  13
BRANCH  12  16
ATOM     16  C   TRP A   1      15.676   7.832  11.680  0.00  0.00    +0.322 C 
ATOM     17  O   TRP A   1      15.197   8.074  10.540  0.00  0.00    -0.249 OA
BRANCH  16  18
ATOM     18  OXT TRP A   1      15.158   8.477  12.800  0.00  0.00    -0.479 OA
ATOM     19  HXT TRP A   1      15.761   8.752  13.566  0.00  0.00    +0.295 HD
ENDBRANCH  16  18
ENDBRANCH  12  16
ENDBRANCH  11  12
ENDBRANCH   1  11
TORSDOF 5
ENDMDL
MODEL 9
REMARK VINA RESULT:      -5.1     21.408     22.936
REMARK  Name = peptide_31_GRHDWEWCSC
REMARK  5 active torsions:
REMARK  status: ('A' for Active; 'I' for Inactive)
REMARK    1  A    between atoms: N_1  and  CA_2
REMARK    2  A    between atoms: CA_2  and  CB_3
REMARK    3  A    between atoms: CA_2  and  C_13
REMARK    4  A    between atoms: CB_3  and  CG_4
REMARK    5  A    between atoms: C_13  and  OXT_15
REMARK                            x       y       z     vdW  Elec       q    Type
REMARK                         _______ _______ _______ _____ _____    ______ ____
ROOT
ATOM      1  CG  TRP A   1       4.538  -1.953  24.837  0.00  0.00    -0.020 A 
ATOM      2  CD1 TRP A   1       5.617  -1.106  24.605  0.00  0.00    +0.087 A 
ATOM      3  NE1 TRP A   1       5.194   0.060  24.065  0.00  0.00    -0.360 N 
ATOM      4  CE2 TRP A   1       3.859  -0.050  23.944  0.00  0.00    +0.047 A 
ATOM      5  CZ2 TRP A   1       2.977   0.894  23.420  0.00  0.00    +0.026 A 
ATOM      6  CH2 TRP A   1       1.611   0.562  23.370  0.00  0.00    +0.002 A 
ATOM      7  CZ3 TRP A   1       1.163  -0.694  23.837  0.00  0.00    +0.001 A 
ATOM      8  CE3 TRP A   1       2.075  -1.627  24.359  0.00  0.00    +0.010 A 
ATOM      9  CD2 TRP A   1       3.422  -1.267  24.401  0.00  0.00    +0.003 A 
ATOM     10  HE1 TRP A   1       5.788   0.872  23.786  0.00  0.00    +0.165 HD
ENDROOT
BRANCH   1  11
ATOM     11  CB  TRP A   1       4.601  -3.362  25.358  0.00  0.00    +0.067 C 
BRANCH  11  12
ATOM     12  CA  TRP A   1       5.890  -3.610  26.167  0.00  0.00    +0.165 C 
BRANCH  12  13
ATOM     13  N   TRP A   1       6.413  -4.955  25.920  0.00  0.00    -0.318 NA
ATOM     14  H1  TRP A   1       7.282  -5.084  26.489  0.00  0.00    +0.119 HD
ATOM     15  H2  TRP A   1       6.686  -5.046  24.914  0.00  0.00    +0.119 HD
ENDBRANCH  12  13
BRANCH  12  16
ATOM     16  C   TRP A   1       5.653  -3.422  27.640  0.00  0.00    +0.322 C 
ATOM     17  O   TRP A   1       5.496  -4.420  28.393  0.00  0.00    -0.249 OA
BRANCH  16  18
ATOM     18  OXT TRP A   1       5.577  -2.137  28.169  0.00  0.00    -0.479 OA
ATOM     19  HXT TRP A   1       6.003  -1.916  29.061  0.00  0.00    +0.295 HD
ENDBRANCH  16  18
ENDBRANCH  12  16
ENDBRANCH  11  12
ENDBRANCH   1  11
TORSDOF 5
ENDMDL
