MODEL 1
REMARK VINA RESULT:      -4.9      0.000      0.000
REMARK  Name = peptide_25_STYKTCKCKN
REMARK  6 active torsions:
REMARK  status: ('A' for Active; 'I' for Inactive)
REMARK    1  A    between atoms: N_1  and  CA_2
REMARK    2  A    between atoms: CA_2  and  CB_3
REMARK    3  A    between atoms: CA_2  and  C_11
REMARK    4  A    between atoms: CB_3  and  CG_4
REMARK    5  A    between atoms: CZ_7  and  OH_8
REMARK    6  A    between atoms: C_11  and  OXT_13
REMARK                            x       y       z     vdW  Elec       q    Type
REMARK                         _______ _______ _______ _____ _____    ______ ____
ROOT
ATOM      1  CB  TYR A   1      17.328   7.457   9.740  0.00  0.00    +0.065 C 
ENDROOT
BRANCH   1   2
ATOM      2  CG  TYR A   1      18.290   6.316   9.537  0.00  0.00    -0.045 A 
ATOM      3  CD1 TYR A   1      19.667   6.559   9.408  0.00  0.00    +0.007 A 
ATOM      4  CE1 TYR A   1      20.553   5.499   9.192  0.00  0.00    +0.045 A 
ATOM      5  CZ  TYR A   1      20.073   4.189   9.094  0.00  0.00    +0.117 A 
ATOM      6  CE2 TYR A   1      18.699   3.942   9.212  0.00  0.00    +0.045 A 
ATOM      7  CD2 TYR A   1      17.811   4.999   9.428  0.00  0.00    +0.007 A 
BRANCH   5   8
ATOM      8  OH  TYR A   1      20.968   3.143   8.878  0.00  0.00    -0.507 OA
ATOM      9  HH  TYR A   1      20.678   2.285   8.423  0.00  0.00    +0.292 HD
ENDBRANCH   5   8
ENDBRANCH   1   2
BRANCH   1  10
ATOM     10  CA  TYR A   1      16.150   7.045  10.640  0.00  0.00    +0.165 C 
BRANCH  10  11
ATOM     11  N   TYR A   1      14.998   7.922  10.419  0.00  0.00    -0.318 NA
ATOM     12  H1  TYR A   1      15.330   8.895  10.224  0.00  0.00    +0.119 HD
ATOM     13  H2  TYR A   1      14.428   7.955  11.296  0.00  0.00    +0.119 HD
ENDBRANCH  10  11
BRANCH  10  14
ATOM     14  C   TYR A   1      16.563   7.058  12.088  0.00  0.00    +0.322 C 
ATOM     15  O   TYR A   1      17.032   8.106  12.608  0.00  0.00    -0.249 OA
BRANCH  14  16
ATOM     16  OXT TYR A   1      16.427   5.906  12.856  0.00  0.00    -0.479 OA
ATOM     17  HXT TYR A   1      15.511   5.564  13.123  0.00  0.00    +0.295 HD
ENDBRANCH  14  16
ENDBRANCH  10  14
ENDBRANCH   1  10
TORSDOF 6
ENDMDL
MODEL 2
REMARK VINA RESULT:      -4.9      1.445      2.045
REMARK  Name = peptide_25_STYKTCKCKN
REMARK  6 active torsions:
REMARK  status: ('A' for Active; 'I' for Inactive)
REMARK    1  A    between atoms: N_1  and  CA_2
REMARK    2  A    between atoms: CA_2  and  CB_3
REMARK    3  A    between atoms: CA_2  and  C_11
REMARK    4  A    between atoms: CB_3  and  CG_4
REMARK    5  A    between atoms: CZ_7  and  OH_8
REMARK    6  A    between atoms: C_11  and  OXT_13
REMARK                            x       y       z     vdW  Elec       q    Type
REMARK                         _______ _______ _______ _____ _____    ______ ____
ROOT
ATOM      1  CB  TYR A   1      16.655   6.854  10.577  0.00  0.00    +0.065 C 
ENDROOT
BRANCH   1   2
ATOM      2  CG  TYR A   1      17.767   6.052   9.953  0.00  0.00    -0.045 A 
ATOM      3  CD1 TYR A   1      17.564   4.708   9.598  0.00  0.00    +0.007 A 
ATOM      4  CE1 TYR A   1      18.607   3.959   9.045  0.00  0.00    +0.045 A 
ATOM      5  CZ  TYR A   1      19.864   4.541   8.849  0.00  0.00    +0.117 A 
ATOM      6  CE2 TYR A   1      20.075   5.878   9.210  0.00  0.00    +0.045 A 
ATOM      7  CD2 TYR A   1      19.034   6.629   9.763  0.00  0.00    +0.007 A 
BRANCH   5   8
ATOM      8  OH  TYR A   1      20.894   3.782   8.297  0.00  0.00    -0.507 OA
ATOM      9  HH  TYR A   1      20.804   3.353   7.383  0.00  0.00    +0.292 HD
ENDBRANCH   5   8
ENDBRANCH   1   2
BRANCH   1  10
ATOM     10  CA  TYR A   1      16.936   7.141  12.062  0.00  0.00    +0.165 C 
BRANCH  10  11
ATOM     11  N   TYR A   1      16.481   6.029  12.899  0.00  0.00    -0.318 NA
ATOM     12  H1  TYR A   1      16.482   6.322  13.904  0.00  0.00    +0.119 HD
ATOM     13  H2  TYR A   1      17.158   5.237  12.803  0.00  0.00    +0.119 HD
ENDBRANCH  10  11
BRANCH  10  14
ATOM     14  C   TYR A   1      16.280   8.430  12.483  0.00  0.00    +0.322 C 
ATOM     15  O   TYR A   1      16.953   9.493  12.558  0.00  0.00    -0.249 OA
BRANCH  14  16
ATOM     16  OXT TYR A   1      14.924   8.446  12.795  0.00  0.00    -0.479 OA
ATOM     17  HXT TYR A   1      14.540   9.158  13.405  0.00  0.00    +0.295 HD
ENDBRANCH  14  16
ENDBRANCH  10  14
ENDBRANCH   1  10
TORSDOF 6
ENDMDL
MODEL 3
REMARK VINA RESULT:      -4.9     20.626     22.468
REMARK  Name = peptide_25_STYKTCKCKN
REMARK  6 active torsions:
REMARK  status: ('A' for Active; 'I' for Inactive)
REMARK    1  A    between atoms: N_1  and  CA_2
REMARK    2  A    between atoms: CA_2  and  CB_3
REMARK    3  A    between atoms: CA_2  and  C_11
REMARK    4  A    between atoms: CB_3  and  CG_4
REMARK    5  A    between atoms: CZ_7  and  OH_8
REMARK    6  A    between atoms: C_11  and  OXT_13
REMARK                            x       y       z     vdW  Elec       q    Type
REMARK                         _______ _______ _______ _____ _____    ______ ____
ROOT
ATOM      1  CB  TYR A   1       5.956  -3.754  26.948  0.00  0.00    +0.065 C 
ENDROOT
BRANCH   1   2
ATOM      2  CG  TYR A   1       5.467  -2.852  25.845  0.00  0.00    -0.045 A 
ATOM      3  CD1 TYR A   1       5.933  -1.530  25.747  0.00  0.00    +0.007 A 
ATOM      4  CE1 TYR A   1       5.456  -0.688  24.738  0.00  0.00    +0.045 A 
ATOM      5  CZ  TYR A   1       4.505  -1.153  23.824  0.00  0.00    +0.117 A 
ATOM      6  CE2 TYR A   1       4.030  -2.467  23.923  0.00  0.00    +0.045 A 
ATOM      7  CD2 TYR A   1       4.505  -3.311  24.930  0.00  0.00    +0.007 A 
BRANCH   5   8
ATOM      8  OH  TYR A   1       4.039  -0.301  22.824  0.00  0.00    -0.507 OA
ATOM      9  HH  TYR A   1       3.419  -0.632  22.094  0.00  0.00    +0.292 HD
ENDBRANCH   5   8
ENDBRANCH   1   2
BRANCH   1  10
ATOM     10  CA  TYR A   1       6.716  -2.961  28.026  0.00  0.00    +0.165 C 
BRANCH  10  11
ATOM     11  N   TYR A   1       8.163  -3.109  27.852  0.00  0.00    -0.318 NA
ATOM     12  H1  TYR A   1       8.422  -4.121  27.914  0.00  0.00    +0.119 HD
ATOM     13  H2  TYR A   1       8.648  -2.613  28.636  0.00  0.00    +0.119 HD
ENDBRANCH  10  11
BRANCH  10  14
ATOM     14  C   TYR A   1       6.295  -3.402  29.402  0.00  0.00    +0.322 C 
ATOM     15  O   TYR A   1       6.627  -2.732  30.416  0.00  0.00    -0.249 OA
BRANCH  14  16
ATOM     16  OXT TYR A   1       5.535  -4.558  29.555  0.00  0.00    -0.479 OA
ATOM     17  HXT TYR A   1       4.861  -4.641  30.306  0.00  0.00    +0.295 HD
ENDBRANCH  14  16
ENDBRANCH  10  14
ENDBRANCH   1  10
TORSDOF 6
ENDMDL
MODEL 4
REMARK VINA RESULT:      -4.8     33.077     34.802
REMARK  Name = peptide_25_STYKTCKCKN
REMARK  6 active torsions:
REMARK  status: ('A' for Active; 'I' for Inactive)
REMARK    1  A    between atoms: N_1  and  CA_2
REMARK    2  A    between atoms: CA_2  and  CB_3
REMARK    3  A    between atoms: CA_2  and  C_11
REMARK    4  A    between atoms: CB_3  and  CG_4
REMARK    5  A    between atoms: CZ_7  and  OH_8
REMARK    6  A    between atoms: C_11  and  OXT_13
REMARK                            x       y       z     vdW  Elec       q    Type
REMARK                         _______ _______ _______ _____ _____    ______ ____
ROOT
ATOM      1  CB  TYR A   1      10.159  -4.386  42.698  0.00  0.00    +0.065 C 
ENDROOT
BRANCH   1   2
ATOM      2  CG  TYR A   1      11.581  -4.355  42.203  0.00  0.00    -0.045 A 
ATOM      3  CD1 TYR A   1      11.976  -3.424  41.227  0.00  0.00    +0.007 A 
ATOM      4  CE1 TYR A   1      13.290  -3.416  40.751  0.00  0.00    +0.045 A 
ATOM      5  CZ  TYR A   1      14.220  -4.342  41.236  0.00  0.00    +0.117 A 
ATOM      6  CE2 TYR A   1      13.830  -5.279  42.201  0.00  0.00    +0.045 A 
ATOM      7  CD2 TYR A   1      12.516  -5.288  42.680  0.00  0.00    +0.007 A 
BRANCH   5   8
ATOM      8  OH  TYR A   1      15.526  -4.323  40.750  0.00  0.00    -0.507 OA
ATOM      9  HH  TYR A   1      16.297  -4.694  41.292  0.00  0.00    +0.292 HD
ENDBRANCH   5   8
ENDBRANCH   1   2
BRANCH   1  10
ATOM     10  CA  TYR A   1       9.663  -5.831  42.887  0.00  0.00    +0.165 C 
BRANCH  10  11
ATOM     11  N   TYR A   1       8.790  -6.227  41.779  0.00  0.00    -0.318 NA
ATOM     12  H1  TYR A   1       9.364  -6.380  40.918  0.00  0.00    +0.119 HD
ATOM     13  H2  TYR A   1       8.126  -5.444  41.579  0.00  0.00    +0.119 HD
ENDBRANCH  10  11
BRANCH  10  14
ATOM     14  C   TYR A   1       8.952  -5.976  44.206  0.00  0.00    +0.322 C 
ATOM     15  O   TYR A   1       8.582  -7.111  44.611  0.00  0.00    -0.249 OA
BRANCH  14  16
ATOM     16  OXT TYR A   1       8.698  -4.849  44.983  0.00  0.00    -0.479 OA
ATOM     17  HXT TYR A   1       7.772  -4.671  45.354  0.00  0.00    +0.295 HD
ENDBRANCH  14  16
ENDBRANCH  10  14
ENDBRANCH   1  10
TORSDOF 6
ENDMDL
MODEL 5
REMARK VINA RESULT:      -4.7     20.492     22.262
REMARK  Name = peptide_25_STYKTCKCKN
REMARK  6 active torsions:
REMARK  status: ('A' for Active; 'I' for Inactive)
REMARK    1  A    between atoms: N_1  and  CA_2
REMARK    2  A    between atoms: CA_2  and  CB_3
REMARK    3  A    between atoms: CA_2  and  C_11
REMARK    4  A    between atoms: CB_3  and  CG_4
REMARK    5  A    between atoms: CZ_7  and  OH_8
REMARK    6  A    between atoms: C_11  and  OXT_13
REMARK                            x       y       z     vdW  Elec       q    Type
REMARK                         _______ _______ _______ _____ _____    ______ ____
ROOT
ATOM      1  CB  TYR A   1       5.672  -3.682  25.725  0.00  0.00    +0.065 C 
ENDROOT
BRANCH   1   2
ATOM      2  CG  TYR A   1       5.054  -2.612  24.862  0.00  0.00    -0.045 A 
ATOM      3  CD1 TYR A   1       4.060  -2.939  23.924  0.00  0.00    +0.007 A 
ATOM      4  CE1 TYR A   1       3.509  -1.948  23.107  0.00  0.00    +0.045 A 
ATOM      5  CZ  TYR A   1       3.949  -0.624  23.212  0.00  0.00    +0.117 A 
ATOM      6  CE2 TYR A   1       4.946  -0.294  24.138  0.00  0.00    +0.045 A 
ATOM      7  CD2 TYR A   1       5.500  -1.283  24.957  0.00  0.00    +0.007 A 
BRANCH   5   8
ATOM      8  OH  TYR A   1       3.391   0.354  22.390  0.00  0.00    -0.507 OA
ATOM      9  HH  TYR A   1       3.563   1.339  22.549  0.00  0.00    +0.292 HD
ENDBRANCH   5   8
ENDBRANCH   1   2
BRANCH   1  10
ATOM     10  CA  TYR A   1       5.988  -3.152  27.134  0.00  0.00    +0.165 C 
BRANCH  10  11
ATOM     11  N   TYR A   1       7.381  -3.432  27.492  0.00  0.00    -0.318 NA
ATOM     12  H1  TYR A   1       7.725  -4.257  26.948  0.00  0.00    +0.119 HD
ATOM     13  H2  TYR A   1       7.423  -3.686  28.506  0.00  0.00    +0.119 HD
ENDBRANCH  10  11
BRANCH  10  14
ATOM     14  C   TYR A   1       5.046  -3.751  28.146  0.00  0.00    +0.322 C 
ATOM     15  O   TYR A   1       5.492  -4.433  29.107  0.00  0.00    -0.249 OA
BRANCH  14  16
ATOM     16  OXT TYR A   1       3.675  -3.551  28.016  0.00  0.00    -0.479 OA
ATOM     17  HXT TYR A   1       3.311  -2.821  27.416  0.00  0.00    +0.295 HD
ENDBRANCH  14  16
ENDBRANCH  10  14
ENDBRANCH   1  10
TORSDOF 6
ENDMDL
MODEL 6
REMARK VINA RESULT:      -4.7     17.627     18.273
REMARK  Name = peptide_25_STYKTCKCKN
REMARK  6 active torsions:
REMARK  status: ('A' for Active; 'I' for Inactive)
REMARK    1  A    between atoms: N_1  and  CA_2
REMARK    2  A    between atoms: CA_2  and  CB_3
REMARK    3  A    between atoms: CA_2  and  C_11
REMARK    4  A    between atoms: CB_3  and  CG_4
REMARK    5  A    between atoms: CZ_7  and  OH_8
REMARK    6  A    between atoms: C_11  and  OXT_13
REMARK                            x       y       z     vdW  Elec       q    Type
REMARK                         _______ _______ _______ _____ _____    ______ ____
ROOT
ATOM      1  CB  TYR A   1       7.170   8.823  25.385  0.00  0.00    +0.065 C 
ENDROOT
BRANCH   1   2
ATOM      2  CG  TYR A   1       7.925   7.550  25.669  0.00  0.00    -0.045 A 
ATOM      3  CD1 TYR A   1       9.273   7.423  25.295  0.00  0.00    +0.007 A 
ATOM      4  CE1 TYR A   1       9.962   6.230  25.535  0.00  0.00    +0.045 A 
ATOM      5  CZ  TYR A   1       9.311   5.152  26.143  0.00  0.00    +0.117 A 
ATOM      6  CE2 TYR A   1       7.964   5.270  26.510  0.00  0.00    +0.045 A 
ATOM      7  CD2 TYR A   1       7.273   6.461  26.271  0.00  0.00    +0.007 A 
BRANCH   5   8
ATOM      8  OH  TYR A   1      10.011   3.969  26.376  0.00  0.00    -0.507 OA
ATOM      9  HH  TYR A   1      10.895   3.966  26.871  0.00  0.00    +0.292 HD
ENDBRANCH   5   8
ENDBRANCH   1   2
BRANCH   1  10
ATOM     10  CA  TYR A   1       7.068   9.088  23.873  0.00  0.00    +0.165 C 
BRANCH  10  11
ATOM     11  N   TYR A   1       7.226  10.516  23.587  0.00  0.00    -0.318 NA
ATOM     12  H1  TYR A   1       8.240  10.737  23.449  0.00  0.00    +0.119 HD
ATOM     13  H2  TYR A   1       6.896  11.063  24.416  0.00  0.00    +0.119 HD
ENDBRANCH  10  11
BRANCH  10  14
ATOM     14  C   TYR A   1       5.759   8.577  23.334  0.00  0.00    +0.322 C 
ATOM     15  O   TYR A   1       4.864   9.382  22.962  0.00  0.00    -0.249 OA
BRANCH  14  16
ATOM     16  OXT TYR A   1       5.534   7.206  23.249  0.00  0.00    -0.479 OA
ATOM     17  HXT TYR A   1       6.286   6.545  23.409  0.00  0.00    +0.295 HD
ENDBRANCH  14  16
ENDBRANCH  10  14
ENDBRANCH   1  10
TORSDOF 6
ENDMDL
MODEL 7
REMARK VINA RESULT:      -4.6     17.897     19.122
REMARK  Name = peptide_25_STYKTCKCKN
REMARK  6 active torsions:
REMARK  status: ('A' for Active; 'I' for Inactive)
REMARK    1  A    between atoms: N_1  and  CA_2
REMARK    2  A    between atoms: CA_2  and  CB_3
REMARK    3  A    between atoms: CA_2  and  C_11
REMARK    4  A    between atoms: CB_3  and  CG_4
REMARK    5  A    between atoms: CZ_7  and  OH_8
REMARK    6  A    between atoms: C_11  and  OXT_13
REMARK                            x       y       z     vdW  Elec       q    Type
REMARK                         _______ _______ _______ _____ _____    ______ ____
ROOT
ATOM      1  CB  TYR A   1       5.161   9.675  24.692  0.00  0.00    +0.065 C 
ENDROOT
BRANCH   1   2
ATOM      2  CG  TYR A   1       5.014  10.455  23.412  0.00  0.00    -0.045 A 
ATOM      3  CD1 TYR A   1       3.762  10.569  22.786  0.00  0.00    +0.007 A 
ATOM      4  CE1 TYR A   1       3.635  11.271  21.584  0.00  0.00    +0.045 A 
ATOM      5  CZ  TYR A   1       4.758  11.858  20.990  0.00  0.00    +0.117 A 
ATOM      6  CE2 TYR A   1       6.011  11.739  21.604  0.00  0.00    +0.045 A 
ATOM      7  CD2 TYR A   1       6.140  11.038  22.807  0.00  0.00    +0.007 A 
BRANCH   5   8
ATOM      8  OH  TYR A   1       4.617  12.554  19.790  0.00  0.00    -0.507 OA
ATOM      9  HH  TYR A   1       4.595  12.073  18.899  0.00  0.00    +0.292 HD
ENDBRANCH   5   8
ENDBRANCH   1   2
BRANCH   1  10
ATOM     10  CA  TYR A   1       6.227   8.574  24.559  0.00  0.00    +0.165 C 
BRANCH  10  11
ATOM     11  N   TYR A   1       5.725   7.464  23.745  0.00  0.00    -0.318 NA
ATOM     12  H1  TYR A   1       4.781   7.706  23.364  0.00  0.00    +0.119 HD
ATOM     13  H2  TYR A   1       5.609   6.624  24.359  0.00  0.00    +0.119 HD
ENDBRANCH  10  11
BRANCH  10  14
ATOM     14  C   TYR A   1       6.657   8.089  25.918  0.00  0.00    +0.322 C 
ATOM     15  O   TYR A   1       7.874   7.868  26.160  0.00  0.00    -0.249 OA
BRANCH  14  16
ATOM     16  OXT TYR A   1       5.705   7.881  26.911  0.00  0.00    -0.479 OA
ATOM     17  HXT TYR A   1       5.729   7.048  27.488  0.00  0.00    +0.295 HD
ENDBRANCH  14  16
ENDBRANCH  10  14
ENDBRANCH   1  10
TORSDOF 6
ENDMDL
MODEL 8
REMARK VINA RESULT:      -4.5     20.988     22.237
REMARK  Name = peptide_25_STYKTCKCKN
REMARK  6 active torsions:
REMARK  status: ('A' for Active; 'I' for Inactive)
REMARK    1  A    between atoms: N_1  and  CA_2
REMARK    2  A    between atoms: CA_2  and  CB_3
REMARK    3  A    between atoms: CA_2  and  C_11
REMARK    4  A    between atoms: CB_3  and  CG_4
REMARK    5  A    between atoms: CZ_7  and  OH_8
REMARK    6  A    between atoms: C_11  and  OXT_13
REMARK                            x       y       z     vdW  Elec       q    Type
REMARK                         _______ _______ _______ _____ _____    ______ ____
ROOT
ATOM      1  CB  TYR A   1       5.053  -2.650  24.565  0.00  0.00    +0.065 C 
ENDROOT
BRANCH   1   2
ATOM      2  CG  TYR A   1       4.075  -1.523  24.363  0.00  0.00    -0.045 A 
ATOM      3  CD1 TYR A   1       4.531  -0.202  24.214  0.00  0.00    +0.007 A 
ATOM      4  CE1 TYR A   1       3.619   0.845  24.054  0.00  0.00    +0.045 A 
ATOM      5  CZ  TYR A   1       2.244   0.586  24.051  0.00  0.00    +0.117 A 
ATOM      6  CE2 TYR A   1       1.783  -0.727  24.208  0.00  0.00    +0.045 A 
ATOM      7  CD2 TYR A   1       2.693  -1.776  24.368  0.00  0.00    +0.007 A 
BRANCH   5   8
ATOM      8  OH  TYR A   1       1.346   1.640  23.891  0.00  0.00    -0.507 OA
ATOM      9  HH  TYR A   1       1.621   2.600  24.063  0.00  0.00    +0.292 HD
ENDBRANCH   5   8
ENDBRANCH   1   2
BRANCH   1  10
ATOM     10  CA  TYR A   1       5.111  -3.086  26.040  0.00  0.00    +0.165 C 
BRANCH  10  11
ATOM     11  N   TYR A   1       5.852  -2.107  26.839  0.00  0.00    -0.318 NA
ATOM     12  H1  TYR A   1       5.201  -1.635  27.509  0.00  0.00    +0.119 HD
ATOM     13  H2  TYR A   1       6.233  -1.371  26.201  0.00  0.00    +0.119 HD
ENDBRANCH  10  11
BRANCH  10  14
ATOM     14  C   TYR A   1       5.727  -4.454  26.162  0.00  0.00    +0.322 C 
ATOM     15  O   TYR A   1       5.307  -5.267  27.029  0.00  0.00    -0.249 OA
BRANCH  14  16
ATOM     16  OXT TYR A   1       6.769  -4.821  25.316  0.00  0.00    -0.479 OA
ATOM     17  HXT TYR A   1       6.593  -5.049  24.344  0.00  0.00    +0.295 HD
ENDBRANCH  14  16
ENDBRANCH  10  14
ENDBRANCH   1  10
TORSDOF 6
ENDMDL
MODEL 9
REMARK VINA RESULT:      -4.5      1.922      1.993
REMARK  Name = peptide_25_STYKTCKCKN
REMARK  6 active torsions:
REMARK  status: ('A' for Active; 'I' for Inactive)
REMARK    1  A    between atoms: N_1  and  CA_2
REMARK    2  A    between atoms: CA_2  and  CB_3
REMARK    3  A    between atoms: CA_2  and  C_11
REMARK    4  A    between atoms: CB_3  and  CG_4
REMARK    5  A    between atoms: CZ_7  and  OH_8
REMARK    6  A    between atoms: C_11  and  OXT_13
REMARK                            x       y       z     vdW  Elec       q    Type
REMARK                         _______ _______ _______ _____ _____    ______ ____
ROOT
ATOM      1  CB  TYR A   1      18.171   7.849   9.751  0.00  0.00    +0.065 C 
ENDROOT
BRANCH   1   2
ATOM      2  CG  TYR A   1      18.948   6.576   9.536  0.00  0.00    -0.045 A 
ATOM      3  CD1 TYR A   1      20.324   6.619   9.260  0.00  0.00    +0.007 A 
ATOM      4  CE1 TYR A   1      21.036   5.437   9.034  0.00  0.00    +0.045 A 
ATOM      5  CZ  TYR A   1      20.379   4.202   9.073  0.00  0.00    +0.117 A 
ATOM      6  CE2 TYR A   1      19.005   4.154   9.339  0.00  0.00    +0.045 A 
ATOM      7  CD2 TYR A   1      18.291   5.334   9.565  0.00  0.00    +0.007 A 
BRANCH   5   8
ATOM      8  OH  TYR A   1      21.101   3.032   8.845  0.00  0.00    -0.507 OA
ATOM      9  HH  TYR A   1      20.781   2.333   8.185  0.00  0.00    +0.292 HD
ENDBRANCH   5   8
ENDBRANCH   1   2
BRANCH   1  10
ATOM     10  CA  TYR A   1      16.948   7.923   8.821  0.00  0.00    +0.165 C 
BRANCH  10  11
ATOM     11  N   TYR A   1      17.091   9.024   7.865  0.00  0.00    -0.318 NA
ATOM     12  H1  TYR A   1      16.329   8.969   7.149  0.00  0.00    +0.119 HD
ATOM     13  H2  TYR A   1      18.002   8.916   7.362  0.00  0.00    +0.119 HD
ENDBRANCH  10  11
BRANCH  10  14
ATOM     14  C   TYR A   1      15.683   8.073   9.624  0.00  0.00    +0.322 C 
ATOM     15  O   TYR A   1      15.585   8.977  10.497  0.00  0.00    -0.249 OA
BRANCH  14  16
ATOM     16  OXT TYR A   1      14.616   7.207   9.402  0.00  0.00    -0.479 OA
ATOM     17  HXT TYR A   1      14.005   6.930  10.162  0.00  0.00    +0.295 HD
ENDBRANCH  14  16
ENDBRANCH  10  14
ENDBRANCH   1  10
TORSDOF 6
ENDMDL
