MODEL 1
REMARK VINA RESULT:      -4.8      0.000      0.000
REMARK  Name = peptide_13_SRSTLFCNKI
REMARK  5 active torsions:
REMARK  status: ('A' for Active; 'I' for Inactive)
REMARK    1  A    between atoms: N_1  and  CA_2
REMARK    2  A    between atoms: CA_2  and  CB_3
REMARK    3  A    between atoms: CA_2  and  C_10
REMARK    4  A    between atoms: CB_3  and  CG_4
REMARK    5  A    between atoms: C_10  and  OXT_12
REMARK                            x       y       z     vdW  Elec       q    Type
REMARK                         _______ _______ _______ _____ _____    ______ ____
ROOT
ATOM      1  CA  PHE A   1       9.684  -5.832  42.887  0.00  0.00    +0.165 C 
ENDROOT
BRANCH   1   2
ATOM      2  N   PHE A   1       8.796  -6.227  41.792  0.00  0.00    -0.318 NA
ATOM      3  H1  PHE A   1       8.251  -7.068  42.091  0.00  0.00    +0.119 HD
ATOM      4  H2  PHE A   1       9.368  -6.507  40.962  0.00  0.00    +0.119 HD
ENDBRANCH   1   2
BRANCH   1   5
ATOM      5  C   PHE A   1       8.961  -5.989  44.196  0.00  0.00    +0.322 C 
ATOM      6  O   PHE A   1       8.607  -7.133  44.588  0.00  0.00    -0.249 OA
BRANCH   5   7
ATOM      7  OXT PHE A   1       8.694  -4.872  44.984  0.00  0.00    -0.479 OA
ATOM      8  HXT PHE A   1       8.853  -3.937  44.629  0.00  0.00    +0.295 HD
ENDBRANCH   5   7
ENDBRANCH   1   5
BRANCH   1   9
ATOM      9  CB  PHE A   1      10.186  -4.385  42.695  0.00  0.00    +0.065 C 
BRANCH   9  10
ATOM     10  CG  PHE A   1      11.612  -4.349  42.206  0.00  0.00    -0.045 A 
ATOM     11  CD1 PHE A   1      11.990  -3.447  41.197  0.00  0.00    +0.003 A 
ATOM     12  CE1 PHE A   1      13.305  -3.434  40.721  0.00  0.00    +0.000 A 
ATOM     13  CZ  PHE A   1      14.248  -4.325  41.243  0.00  0.00    +0.000 A 
ATOM     14  CE2 PHE A   1      13.877  -5.233  42.238  0.00  0.00    +0.000 A 
ATOM     15  CD2 PHE A   1      12.563  -5.248  42.717  0.00  0.00    +0.003 A 
ENDBRANCH   9  10
ENDBRANCH   1   9
TORSDOF 5
ENDMDL
MODEL 2
REMARK VINA RESULT:      -4.8     19.181     20.986
REMARK  Name = peptide_13_SRSTLFCNKI
REMARK  5 active torsions:
REMARK  status: ('A' for Active; 'I' for Inactive)
REMARK    1  A    between atoms: N_1  and  CA_2
REMARK    2  A    between atoms: CA_2  and  CB_3
REMARK    3  A    between atoms: CA_2  and  C_10
REMARK    4  A    between atoms: CB_3  and  CG_4
REMARK    5  A    between atoms: C_10  and  OXT_12
REMARK                            x       y       z     vdW  Elec       q    Type
REMARK                         _______ _______ _______ _____ _____    ______ ____
ROOT
ATOM      1  CA  PHE A   1     -10.181  -0.804  48.295  0.00  0.00    +0.165 C 
ENDROOT
BRANCH   1   2
ATOM      2  N   PHE A   1     -10.779  -1.513  49.428  0.00  0.00    -0.318 NA
ATOM      3  H1  PHE A   1     -11.252  -2.375  49.071  0.00  0.00    +0.119 HD
ATOM      4  H2  PHE A   1     -11.517  -0.913  49.865  0.00  0.00    +0.119 HD
ENDBRANCH   1   2
BRANCH   1   5
ATOM      5  C   PHE A   1     -11.208  -0.647  47.208  0.00  0.00    +0.322 C 
ATOM      6  O   PHE A   1     -12.401  -0.369  47.502  0.00  0.00    -0.249 OA
BRANCH   5   7
ATOM      7  OXT PHE A   1     -10.839  -0.793  45.874  0.00  0.00    -0.479 OA
ATOM      8  HXT PHE A   1     -11.219  -1.544  45.309  0.00  0.00    +0.295 HD
ENDBRANCH   5   7
ENDBRANCH   1   5
BRANCH   1   9
ATOM      9  CB  PHE A   1      -8.930  -1.546  47.779  0.00  0.00    +0.065 C 
BRANCH   9  10
ATOM     10  CG  PHE A   1      -7.680  -0.721  47.957  0.00  0.00    -0.045 A 
ATOM     11  CD1 PHE A   1      -7.767   0.676  48.084  0.00  0.00    +0.003 A 
ATOM     12  CE1 PHE A   1      -6.606   1.444  48.218  0.00  0.00    +0.000 A 
ATOM     13  CZ  PHE A   1      -5.353   0.826  48.219  0.00  0.00    +0.000 A 
ATOM     14  CE2 PHE A   1      -5.257  -0.561  48.082  0.00  0.00    +0.000 A 
ATOM     15  CD2 PHE A   1      -6.415  -1.333  47.948  0.00  0.00    +0.003 A 
ENDBRANCH   9  10
ENDBRANCH   1   9
TORSDOF 5
ENDMDL
MODEL 3
REMARK VINA RESULT:      -4.8     18.883     21.102
REMARK  Name = peptide_13_SRSTLFCNKI
REMARK  5 active torsions:
REMARK  status: ('A' for Active; 'I' for Inactive)
REMARK    1  A    between atoms: N_1  and  CA_2
REMARK    2  A    between atoms: CA_2  and  CB_3
REMARK    3  A    between atoms: CA_2  and  C_10
REMARK    4  A    between atoms: CB_3  and  CG_4
REMARK    5  A    between atoms: C_10  and  OXT_12
REMARK                            x       y       z     vdW  Elec       q    Type
REMARK                         _______ _______ _______ _____ _____    ______ ____
ROOT
ATOM      1  CA  PHE A   1      -6.585  -0.364  47.506  0.00  0.00    +0.165 C 
ENDROOT
BRANCH   1   2
ATOM      2  N   PHE A   1      -5.424  -1.215  47.235  0.00  0.00    -0.318 NA
ATOM      3  H1  PHE A   1      -5.206  -1.166  46.213  0.00  0.00    +0.119 HD
ATOM      4  H2  PHE A   1      -5.662  -2.210  47.454  0.00  0.00    +0.119 HD
ENDBRANCH   1   2
BRANCH   1   5
ATOM      5  C   PHE A   1      -6.117   0.952  48.063  0.00  0.00    +0.322 C 
ATOM      6  O   PHE A   1      -5.089   1.508  47.591  0.00  0.00    -0.249 OA
BRANCH   5   7
ATOM      7  OXT PHE A   1      -6.827   1.567  49.090  0.00  0.00    -0.479 OA
ATOM      8  HXT PHE A   1      -6.631   2.525  49.356  0.00  0.00    +0.295 HD
ENDBRANCH   5   7
ENDBRANCH   1   5
BRANCH   1   9
ATOM      9  CB  PHE A   1      -7.567  -1.062  48.471  0.00  0.00    +0.065 C 
BRANCH   9  10
ATOM     10  CG  PHE A   1      -8.990  -0.970  47.980  0.00  0.00    -0.045 A 
ATOM     11  CD1 PHE A   1      -9.783   0.141  48.316  0.00  0.00    +0.003 A 
ATOM     12  CE1 PHE A   1     -11.112   0.212  47.886  0.00  0.00    +0.000 A 
ATOM     13  CZ  PHE A   1     -11.660  -0.825  47.127  0.00  0.00    +0.000 A 
ATOM     14  CE2 PHE A   1     -10.881  -1.938  46.798  0.00  0.00    +0.000 A 
ATOM     15  CD2 PHE A   1      -9.552  -2.013  47.224  0.00  0.00    +0.003 A 
ENDBRANCH   9  10
ENDBRANCH   1   9
TORSDOF 5
ENDMDL
MODEL 4
REMARK VINA RESULT:      -4.8     19.324     21.122
REMARK  Name = peptide_13_SRSTLFCNKI
REMARK  5 active torsions:
REMARK  status: ('A' for Active; 'I' for Inactive)
REMARK    1  A    between atoms: N_1  and  CA_2
REMARK    2  A    between atoms: CA_2  and  CB_3
REMARK    3  A    between atoms: CA_2  and  C_10
REMARK    4  A    between atoms: CB_3  and  CG_4
REMARK    5  A    between atoms: C_10  and  OXT_12
REMARK                            x       y       z     vdW  Elec       q    Type
REMARK                         _______ _______ _______ _____ _____    ______ ____
ROOT
ATOM      1  CA  PHE A   1     -10.290  -0.949  47.311  0.00  0.00    +0.165 C 
ENDROOT
BRANCH   1   2
ATOM      2  N   PHE A   1     -10.947  -0.701  46.025  0.00  0.00    -0.318 NA
ATOM      3  H1  PHE A   1     -10.214  -0.488  45.310  0.00  0.00    +0.119 HD
ATOM      4  H2  PHE A   1     -11.559   0.145  46.103  0.00  0.00    +0.119 HD
ENDBRANCH   1   2
BRANCH   1   5
ATOM      5  C   PHE A   1     -11.298  -1.482  48.290  0.00  0.00    +0.322 C 
ATOM      6  O   PHE A   1     -12.530  -1.343  48.066  0.00  0.00    -0.249 OA
BRANCH   5   7
ATOM      7  OXT PHE A   1     -10.872  -2.145  49.438  0.00  0.00    -0.479 OA
ATOM      8  HXT PHE A   1     -10.320  -1.666  50.140  0.00  0.00    +0.295 HD
ENDBRANCH   5   7
ENDBRANCH   1   5
BRANCH   1   9
ATOM      9  CB  PHE A   1      -9.617   0.334  47.843  0.00  0.00    +0.065 C 
BRANCH   9  10
ATOM     10  CG  PHE A   1      -8.127   0.161  47.994  0.00  0.00    -0.045 A 
ATOM     11  CD1 PHE A   1      -7.288   1.287  48.064  0.00  0.00    +0.003 A 
ATOM     12  CE1 PHE A   1      -5.903   1.127  48.175  0.00  0.00    +0.000 A 
ATOM     13  CZ  PHE A   1      -5.347  -0.155  48.208  0.00  0.00    +0.000 A 
ATOM     14  CE2 PHE A   1      -6.173  -1.279  48.128  0.00  0.00    +0.000 A 
ATOM     15  CD2 PHE A   1      -7.557  -1.123  48.018  0.00  0.00    +0.003 A 
ENDBRANCH   9  10
ENDBRANCH   1   9
TORSDOF 5
ENDMDL
MODEL 5
REMARK VINA RESULT:      -4.8     34.993     35.863
REMARK  Name = peptide_13_SRSTLFCNKI
REMARK  5 active torsions:
REMARK  status: ('A' for Active; 'I' for Inactive)
REMARK    1  A    between atoms: N_1  and  CA_2
REMARK    2  A    between atoms: CA_2  and  CB_3
REMARK    3  A    between atoms: CA_2  and  C_10
REMARK    4  A    between atoms: CB_3  and  CG_4
REMARK    5  A    between atoms: C_10  and  OXT_12
REMARK                            x       y       z     vdW  Elec       q    Type
REMARK                         _______ _______ _______ _____ _____    ______ ____
ROOT
ATOM      1  CA  PHE A   1      17.348   6.279  10.133  0.00  0.00    +0.165 C 
ENDROOT
BRANCH   1   2
ATOM      2  N   PHE A   1      16.816   5.881  11.438  0.00  0.00    -0.318 NA
ATOM      3  H1  PHE A   1      16.868   4.839  11.516  0.00  0.00    +0.119 HD
ATOM      4  H2  PHE A   1      15.806   6.147  11.499  0.00  0.00    +0.119 HD
ENDBRANCH   1   2
BRANCH   1   5
ATOM      5  C   PHE A   1      16.247   6.895   9.314  0.00  0.00    +0.322 C 
ATOM      6  O   PHE A   1      15.045   6.605   9.552  0.00  0.00    -0.249 OA
BRANCH   5   7
ATOM      7  OXT PHE A   1      16.554   7.800   8.302  0.00  0.00    -0.479 OA
ATOM      8  HXT PHE A   1      16.259   7.631   7.347  0.00  0.00    +0.295 HD
ENDBRANCH   5   7
ENDBRANCH   1   5
BRANCH   1   9
ATOM      9  CB  PHE A   1      17.980   5.075   9.404  0.00  0.00    +0.065 C 
BRANCH   9  10
ATOM     10  CG  PHE A   1      19.476   5.218   9.285  0.00  0.00    -0.045 A 
ATOM     11  CD1 PHE A   1      20.292   4.076   9.209  0.00  0.00    +0.003 A 
ATOM     12  CE1 PHE A   1      21.682   4.207   9.129  0.00  0.00    +0.000 A 
ATOM     13  CZ  PHE A   1      22.267   5.476   9.130  0.00  0.00    +0.000 A 
ATOM     14  CE2 PHE A   1      21.464   6.617   9.216  0.00  0.00    +0.000 A 
ATOM     15  CD2 PHE A   1      20.074   6.490   9.296  0.00  0.00    +0.003 A 
ENDBRANCH   9  10
ENDBRANCH   1   9
TORSDOF 5
ENDMDL
MODEL 6
REMARK VINA RESULT:      -4.7     34.920     35.948
REMARK  Name = peptide_13_SRSTLFCNKI
REMARK  5 active torsions:
REMARK  status: ('A' for Active; 'I' for Inactive)
REMARK    1  A    between atoms: N_1  and  CA_2
REMARK    2  A    between atoms: CA_2  and  CB_3
REMARK    3  A    between atoms: CA_2  and  C_10
REMARK    4  A    between atoms: CB_3  and  CG_4
REMARK    5  A    between atoms: C_10  and  OXT_12
REMARK                            x       y       z     vdW  Elec       q    Type
REMARK                         _______ _______ _______ _____ _____    ______ ____
ROOT
ATOM      1  CA  PHE A   1      17.812   6.294   9.003  0.00  0.00    +0.165 C 
ENDROOT
BRANCH   1   2
ATOM      2  N   PHE A   1      17.122   7.108   7.999  0.00  0.00    -0.318 NA
ATOM      3  H1  PHE A   1      16.329   6.551   7.606  0.00  0.00    +0.119 HD
ATOM      4  H2  PHE A   1      17.777   7.316   7.209  0.00  0.00    +0.119 HD
ENDBRANCH   1   2
BRANCH   1   5
ATOM      5  C   PHE A   1      16.862   5.980  10.126  0.00  0.00    +0.322 C 
ATOM      6  O   PHE A   1      15.691   5.588   9.871  0.00  0.00    -0.249 OA
BRANCH   5   7
ATOM      7  OXT PHE A   1      17.279   6.104  11.448  0.00  0.00    -0.479 OA
ATOM      8  HXT PHE A   1      16.835   5.569  12.185  0.00  0.00    +0.295 HD
ENDBRANCH   5   7
ENDBRANCH   1   5
BRANCH   1   9
ATOM      9  CB  PHE A   1      19.074   7.014   9.524  0.00  0.00    +0.065 C 
BRANCH   9  10
ATOM     10  CG  PHE A   1      20.303   6.151   9.389  0.00  0.00    -0.045 A 
ATOM     11  CD1 PHE A   1      21.583   6.723   9.487  0.00  0.00    +0.003 A 
ATOM     12  CE1 PHE A   1      22.723   5.929   9.332  0.00  0.00    +0.000 A 
ATOM     13  CZ  PHE A   1      22.595   4.562   9.071  0.00  0.00    +0.000 A 
ATOM     14  CE2 PHE A   1      21.326   3.987   8.960  0.00  0.00    +0.000 A 
ATOM     15  CD2 PHE A   1      20.184   4.777   9.115  0.00  0.00    +0.003 A 
ENDBRANCH   9  10
ENDBRANCH   1   9
TORSDOF 5
ENDMDL
MODEL 7
REMARK VINA RESULT:      -4.7     16.362     17.240
REMARK  Name = peptide_13_SRSTLFCNKI
REMARK  5 active torsions:
REMARK  status: ('A' for Active; 'I' for Inactive)
REMARK    1  A    between atoms: N_1  and  CA_2
REMARK    2  A    between atoms: CA_2  and  CB_3
REMARK    3  A    between atoms: CA_2  and  C_10
REMARK    4  A    between atoms: CB_3  and  CG_4
REMARK    5  A    between atoms: C_10  and  OXT_12
REMARK                            x       y       z     vdW  Elec       q    Type
REMARK                         _______ _______ _______ _____ _____    ______ ____
ROOT
ATOM      1  CA  PHE A   1       6.740  -2.960  28.000  0.00  0.00    +0.165 C 
ENDROOT
BRANCH   1   2
ATOM      2  N   PHE A   1       8.195  -3.080  27.890  0.00  0.00    -0.318 NA
ATOM      3  H1  PHE A   1       8.637  -2.321  28.457  0.00  0.00    +0.119 HD
ATOM      4  H2  PHE A   1       8.484  -2.932  26.895  0.00  0.00    +0.119 HD
ENDBRANCH   1   2
BRANCH   1   5
ATOM      5  C   PHE A   1       6.307  -3.400  29.372  0.00  0.00    +0.322 C 
ATOM      6  O   PHE A   1       6.624  -2.717  30.383  0.00  0.00    -0.249 OA
BRANCH   5   7
ATOM      7  OXT PHE A   1       5.542  -4.552  29.526  0.00  0.00    -0.479 OA
ATOM      8  HXT PHE A   1       5.901  -5.456  29.239  0.00  0.00    +0.295 HD
ENDBRANCH   5   7
ENDBRANCH   1   5
BRANCH   1   9
ATOM      9  CB  PHE A   1       6.034  -3.782  26.901  0.00  0.00    +0.065 C 
BRANCH   9  10
ATOM     10  CG  PHE A   1       5.467  -2.896  25.821  0.00  0.00    -0.045 A 
ATOM     11  CD1 PHE A   1       5.884  -1.558  25.712  0.00  0.00    +0.003 A 
ATOM     12  CE1 PHE A   1       5.337  -0.727  24.729  0.00  0.00    +0.000 A 
ATOM     13  CZ  PHE A   1       4.366  -1.223  23.854  0.00  0.00    +0.000 A 
ATOM     14  CE2 PHE A   1       3.938  -2.549  23.962  0.00  0.00    +0.000 A 
ATOM     15  CD2 PHE A   1       4.483  -3.382  24.943  0.00  0.00    +0.003 A 
ENDBRANCH   9  10
ENDBRANCH   1   9
TORSDOF 5
ENDMDL
MODEL 8
REMARK VINA RESULT:      -4.7     16.318     17.193
REMARK  Name = peptide_13_SRSTLFCNKI
REMARK  5 active torsions:
REMARK  status: ('A' for Active; 'I' for Inactive)
REMARK    1  A    between atoms: N_1  and  CA_2
REMARK    2  A    between atoms: CA_2  and  CB_3
REMARK    3  A    between atoms: CA_2  and  C_10
REMARK    4  A    between atoms: CB_3  and  CG_4
REMARK    5  A    between atoms: C_10  and  OXT_12
REMARK                            x       y       z     vdW  Elec       q    Type
REMARK                         _______ _______ _______ _____ _____    ______ ____
ROOT
ATOM      1  CA  PHE A   1       6.761  -2.932  28.033  0.00  0.00    +0.165 C 
ENDROOT
BRANCH   1   2
ATOM      2  N   PHE A   1       8.216  -3.054  27.923  0.00  0.00    -0.318 NA
ATOM      3  H1  PHE A   1       8.481  -4.054  28.081  0.00  0.00    +0.119 HD
ATOM      4  H2  PHE A   1       8.672  -2.489  28.677  0.00  0.00    +0.119 HD
ENDBRANCH   1   2
BRANCH   1   5
ATOM      5  C   PHE A   1       6.324  -3.398  29.394  0.00  0.00    +0.322 C 
ATOM      6  O   PHE A   1       5.606  -4.427  29.509  0.00  0.00    -0.249 OA
BRANCH   5   7
ATOM      7  OXT PHE A   1       6.725  -2.703  30.532  0.00  0.00    -0.479 OA
ATOM      8  HXT PHE A   1       6.206  -1.895  30.857  0.00  0.00    +0.295 HD
ENDBRANCH   5   7
ENDBRANCH   1   5
BRANCH   1   9
ATOM      9  CB  PHE A   1       6.055  -3.729  26.916  0.00  0.00    +0.065 C 
BRANCH   9  10
ATOM     10  CG  PHE A   1       5.404  -2.817  25.907  0.00  0.00    -0.045 A 
ATOM     11  CD1 PHE A   1       4.289  -3.256  25.172  0.00  0.00    +0.003 A 
ATOM     12  CE1 PHE A   1       3.704  -2.422  24.215  0.00  0.00    +0.000 A 
ATOM     13  CZ  PHE A   1       4.229  -1.149  23.979  0.00  0.00    +0.000 A 
ATOM     14  CE2 PHE A   1       5.344  -0.708  24.697  0.00  0.00    +0.000 A 
ATOM     15  CD2 PHE A   1       5.932  -1.539  25.656  0.00  0.00    +0.003 A 
ENDBRANCH   9  10
ENDBRANCH   1   9
TORSDOF 5
ENDMDL
MODEL 9
REMARK VINA RESULT:      -4.6     33.015     34.533
REMARK  Name = peptide_13_SRSTLFCNKI
REMARK  5 active torsions:
REMARK  status: ('A' for Active; 'I' for Inactive)
REMARK    1  A    between atoms: N_1  and  CA_2
REMARK    2  A    between atoms: CA_2  and  CB_3
REMARK    3  A    between atoms: CA_2  and  C_10
REMARK    4  A    between atoms: CB_3  and  CG_4
REMARK    5  A    between atoms: C_10  and  OXT_12
REMARK                            x       y       z     vdW  Elec       q    Type
REMARK                         _______ _______ _______ _____ _____    ______ ____
ROOT
ATOM      1  CA  PHE A   1      17.686   6.025   9.515  0.00  0.00    +0.165 C 
ENDROOT
BRANCH   1   2
ATOM      2  N   PHE A   1      17.186   6.562   8.247  0.00  0.00    -0.318 NA
ATOM      3  H1  PHE A   1      17.239   7.606   8.282  0.00  0.00    +0.119 HD
ATOM      4  H2  PHE A   1      16.179   6.306   8.132  0.00  0.00    +0.119 HD
ENDBRANCH   1   2
BRANCH   1   5
ATOM      5  C   PHE A   1      17.971   4.557   9.355  0.00  0.00    +0.322 C 
ATOM      6  O   PHE A   1      17.283   3.863   8.560  0.00  0.00    -0.249 OA
BRANCH   5   7
ATOM      7  OXT PHE A   1      19.006   3.966  10.074  0.00  0.00    -0.479 OA
ATOM      8  HXT PHE A   1      19.601   4.520  10.679  0.00  0.00    +0.295 HD
ENDBRANCH   5   7
ENDBRANCH   1   5
BRANCH   1   9
ATOM      9  CB  PHE A   1      16.678   6.278  10.656  0.00  0.00    +0.065 C 
BRANCH   9  10
ATOM     10  CG  PHE A   1      17.251   7.189  11.713  0.00  0.00    -0.045 A 
ATOM     11  CD1 PHE A   1      16.933   6.987  13.067  0.00  0.00    +0.003 A 
ATOM     12  CE1 PHE A   1      17.439   7.849  14.045  0.00  0.00    +0.000 A 
ATOM     13  CZ  PHE A   1      18.258   8.920  13.678  0.00  0.00    +0.000 A 
ATOM     14  CE2 PHE A   1      18.570   9.135  12.333  0.00  0.00    +0.000 A 
ATOM     15  CD2 PHE A   1      18.067   8.275  11.353  0.00  0.00    +0.003 A 
ENDBRANCH   9  10
ENDBRANCH   1   9
TORSDOF 5
ENDMDL
