MODEL 1
REMARK VINA RESULT:      -3.5      0.000      0.000
REMARK  Name = peptide_14_GDNRCCNDRK
REMARK  4 active torsions:
REMARK  status: ('A' for Active; 'I' for Inactive)
REMARK    1  A    between atoms: N_1  and  CA_2
REMARK    2  A    between atoms: CA_2  and  CB_3
REMARK    3  A    between atoms: CA_2  and  C_4
REMARK    4  A    between atoms: C_4  and  OXT_6
REMARK                            x       y       z     vdW  Elec       q    Type
REMARK                         _______ _______ _______ _____ _____    ______ ____
ROOT
ATOM      1  CA  ALA A   1       8.878   5.323  26.581  0.00  0.00    +0.158 C 
ATOM      2  CB  ALA A   1       9.735   5.408  25.316  0.00  0.00    +0.036 C 
ENDROOT
BRANCH   1   3
ATOM      3  N   ALA A   1       8.833   3.942  27.067  0.00  0.00    -0.319 NA
ATOM      4  H1  ALA A   1       9.471   3.857  27.892  0.00  0.00    +0.119 HD
ATOM      5  H2  ALA A   1       7.865   3.716  27.394  0.00  0.00    +0.119 HD
ENDBRANCH   1   3
BRANCH   1   6
ATOM      6  C   ALA A   1       7.492   5.852  26.324  0.00  0.00    +0.321 C 
ATOM      7  O   ALA A   1       6.675   5.990  27.274  0.00  0.00    -0.249 OA
BRANCH   6   8
ATOM      8  OXT ALA A   1       7.110   6.188  25.029  0.00  0.00    -0.479 OA
ATOM      9  HXT ALA A   1       7.331   5.582  24.248  0.00  0.00    +0.295 HD
ENDBRANCH   6   8
ENDBRANCH   1   6
TORSDOF 3
ENDMDL
MODEL 2
REMARK VINA RESULT:      -3.5      2.422      2.836
REMARK  Name = peptide_14_GDNRCCNDRK
REMARK  4 active torsions:
REMARK  status: ('A' for Active; 'I' for Inactive)
REMARK    1  A    between atoms: N_1  and  CA_2
REMARK    2  A    between atoms: CA_2  and  CB_3
REMARK    3  A    between atoms: CA_2  and  C_4
REMARK    4  A    between atoms: C_4  and  OXT_6
REMARK                            x       y       z     vdW  Elec       q    Type
REMARK                         _______ _______ _______ _____ _____    ______ ____
ROOT
ATOM      1  CA  ALA A   1       8.260   5.613  26.521  0.00  0.00    +0.158 C 
ATOM      2  CB  ALA A   1       7.816   4.535  27.510  0.00  0.00    +0.036 C 
ENDROOT
BRANCH   1   3
ATOM      3  N   ALA A   1       7.181   5.905  25.575  0.00  0.00    -0.319 NA
ATOM      4  H1  ALA A   1       6.427   5.189  25.697  0.00  0.00    +0.119 HD
ATOM      5  H2  ALA A   1       6.764   6.839  25.795  0.00  0.00    +0.119 HD
ENDBRANCH   1   3
BRANCH   1   6
ATOM      6  C   ALA A   1       9.513   5.193  25.800  0.00  0.00    +0.321 C 
ATOM      7  O   ALA A   1      10.156   4.176  26.177  0.00  0.00    -0.249 OA
BRANCH   6   8
ATOM      8  OXT ALA A   1       9.965   5.933  24.712  0.00  0.00    -0.479 OA
ATOM      9  HXT ALA A   1       9.610   6.866  24.535  0.00  0.00    +0.295 HD
ENDBRANCH   6   8
ENDBRANCH   1   6
TORSDOF 3
ENDMDL
MODEL 3
REMARK VINA RESULT:      -3.5      8.965      9.244
REMARK  Name = peptide_14_GDNRCCNDRK
REMARK  4 active torsions:
REMARK  status: ('A' for Active; 'I' for Inactive)
REMARK    1  A    between atoms: N_1  and  CA_2
REMARK    2  A    between atoms: CA_2  and  CB_3
REMARK    3  A    between atoms: CA_2  and  C_4
REMARK    4  A    between atoms: C_4  and  OXT_6
REMARK                            x       y       z     vdW  Elec       q    Type
REMARK                         _______ _______ _______ _____ _____    ______ ____
ROOT
ATOM      1  CA  ALA A   1       6.189  -2.992  29.192  0.00  0.00    +0.158 C 
ATOM      2  CB  ALA A   1       6.832  -2.565  30.512  0.00  0.00    +0.036 C 
ENDROOT
BRANCH   1   3
ATOM      3  N   ALA A   1       5.653  -4.349  29.309  0.00  0.00    -0.319 NA
ATOM      4  H1  ALA A   1       5.478  -4.724  28.347  0.00  0.00    +0.119 HD
ATOM      5  H2  ALA A   1       6.362  -4.970  29.763  0.00  0.00    +0.119 HD
ENDBRANCH   1   3
BRANCH   1   6
ATOM      6  C   ALA A   1       7.177  -2.895  28.060  0.00  0.00    +0.321 C 
ATOM      7  O   ALA A   1       8.416  -2.880  28.294  0.00  0.00    -0.249 OA
BRANCH   6   8
ATOM      8  OXT ALA A   1       6.719  -2.821  26.749  0.00  0.00    -0.479 OA
ATOM      9  HXT ALA A   1       5.728  -2.869  26.540  0.00  0.00    +0.295 HD
ENDBRANCH   6   8
ENDBRANCH   1   6
TORSDOF 3
ENDMDL
MODEL 4
REMARK VINA RESULT:      -3.5      8.887      9.302
REMARK  Name = peptide_14_GDNRCCNDRK
REMARK  4 active torsions:
REMARK  status: ('A' for Active; 'I' for Inactive)
REMARK    1  A    between atoms: N_1  and  CA_2
REMARK    2  A    between atoms: CA_2  and  CB_3
REMARK    3  A    between atoms: CA_2  and  C_4
REMARK    4  A    between atoms: C_4  and  OXT_6
REMARK                            x       y       z     vdW  Elec       q    Type
REMARK                         _______ _______ _______ _____ _____    ______ ____
ROOT
ATOM      1  CA  ALA A   1       6.413  -3.060  28.193  0.00  0.00    +0.158 C 
ATOM      2  CB  ALA A   1       5.548  -4.018  29.014  0.00  0.00    +0.036 C 
ENDROOT
BRANCH   1   3
ATOM      3  N   ALA A   1       6.786  -3.682  26.922  0.00  0.00    -0.319 NA
ATOM      4  H1  ALA A   1       5.941  -3.719  26.306  0.00  0.00    +0.119 HD
ATOM      5  H2  ALA A   1       7.501  -3.092  26.437  0.00  0.00    +0.119 HD
ENDBRANCH   1   3
BRANCH   1   6
ATOM      6  C   ALA A   1       7.632  -2.641  28.970  0.00  0.00    +0.321 C 
ATOM      7  O   ALA A   1       8.785  -2.810  28.487  0.00  0.00    -0.249 OA
BRANCH   6   8
ATOM      8  OXT ALA A   1       7.486  -2.067  30.228  0.00  0.00    -0.479 OA
ATOM      9  HXT ALA A   1       6.706  -2.315  30.825  0.00  0.00    +0.295 HD
ENDBRANCH   6   8
ENDBRANCH   1   6
TORSDOF 3
ENDMDL
MODEL 5
REMARK VINA RESULT:      -3.5     27.010     27.546
REMARK  Name = peptide_14_GDNRCCNDRK
REMARK  4 active torsions:
REMARK  status: ('A' for Active; 'I' for Inactive)
REMARK    1  A    between atoms: N_1  and  CA_2
REMARK    2  A    between atoms: CA_2  and  CB_3
REMARK    3  A    between atoms: CA_2  and  C_4
REMARK    4  A    between atoms: C_4  and  OXT_6
REMARK                            x       y       z     vdW  Elec       q    Type
REMARK                         _______ _______ _______ _____ _____    ______ ____
ROOT
ATOM      1  CA  ALA A   1      -8.710   0.654  48.116  0.00  0.00    +0.158 C 
ATOM      2  CB  ALA A   1      -8.979  -0.813  47.774  0.00  0.00    +0.036 C 
ENDROOT
BRANCH   1   3
ATOM      3  N   ALA A   1      -9.319   1.526  47.110  0.00  0.00    -0.319 NA
ATOM      4  H1  ALA A   1      -8.716   1.520  46.254  0.00  0.00    +0.119 HD
ATOM      5  H2  ALA A   1     -10.255   1.148  46.837  0.00  0.00    +0.119 HD
ENDBRANCH   1   3
BRANCH   1   6
ATOM      6  C   ALA A   1      -7.231   0.912  48.234  0.00  0.00    +0.321 C 
ATOM      7  O   ALA A   1      -6.413   0.270  47.522  0.00  0.00    -0.249 OA
BRANCH   6   8
ATOM      8  OXT ALA A   1      -6.767   1.864  49.135  0.00  0.00    -0.479 OA
ATOM      9  HXT ALA A   1      -7.318   2.127  49.944  0.00  0.00    +0.295 HD
ENDBRANCH   6   8
ENDBRANCH   1   6
TORSDOF 3
ENDMDL
MODEL 6
REMARK VINA RESULT:      -3.5      2.350      2.471
REMARK  Name = peptide_14_GDNRCCNDRK
REMARK  4 active torsions:
REMARK  status: ('A' for Active; 'I' for Inactive)
REMARK    1  A    between atoms: N_1  and  CA_2
REMARK    2  A    between atoms: CA_2  and  CB_3
REMARK    3  A    between atoms: CA_2  and  C_4
REMARK    4  A    between atoms: C_4  and  OXT_6
REMARK                            x       y       z     vdW  Elec       q    Type
REMARK                         _______ _______ _______ _____ _____    ______ ____
ROOT
ATOM      1  CA  ALA A   1       8.104   5.598  26.148  0.00  0.00    +0.158 C 
ATOM      2  CB  ALA A   1       9.163   6.624  25.741  0.00  0.00    +0.036 C 
ENDROOT
BRANCH   1   3
ATOM      3  N   ALA A   1       6.940   6.275  26.721  0.00  0.00    -0.319 NA
ATOM      4  H1  ALA A   1       6.808   7.189  26.227  0.00  0.00    +0.119 HD
ATOM      5  H2  ALA A   1       6.081   5.702  26.554  0.00  0.00    +0.119 HD
ENDBRANCH   1   3
BRANCH   1   6
ATOM      6  C   ALA A   1       8.676   4.594  27.113  0.00  0.00    +0.321 C 
ATOM      7  O   ALA A   1       8.352   4.624  28.332  0.00  0.00    -0.249 OA
BRANCH   6   8
ATOM      8  OXT ALA A   1       9.569   3.629  26.658  0.00  0.00    -0.479 OA
ATOM      9  HXT ALA A   1      10.551   3.673  26.904  0.00  0.00    +0.295 HD
ENDBRANCH   6   8
ENDBRANCH   1   6
TORSDOF 3
ENDMDL
MODEL 7
REMARK VINA RESULT:      -3.4     20.717     21.171
REMARK  Name = peptide_14_GDNRCCNDRK
REMARK  4 active torsions:
REMARK  status: ('A' for Active; 'I' for Inactive)
REMARK    1  A    between atoms: N_1  and  CA_2
REMARK    2  A    between atoms: CA_2  and  CB_3
REMARK    3  A    between atoms: CA_2  and  C_4
REMARK    4  A    between atoms: C_4  and  OXT_6
REMARK                            x       y       z     vdW  Elec       q    Type
REMARK                         _______ _______ _______ _____ _____    ______ ____
ROOT
ATOM      1  CA  ALA A   1      19.349   4.712   9.045  0.00  0.00    +0.158 C 
ATOM      2  CB  ALA A   1      19.292   6.175   9.489  0.00  0.00    +0.036 C 
ENDROOT
BRANCH   1   3
ATOM      3  N   ALA A   1      18.793   3.848  10.088  0.00  0.00    -0.319 NA
ATOM      4  H1  ALA A   1      18.719   4.399  10.975  0.00  0.00    +0.119 HD
ATOM      5  H2  ALA A   1      17.826   3.552   9.821  0.00  0.00    +0.119 HD
ENDBRANCH   1   3
BRANCH   1   6
ATOM      6  C   ALA A   1      20.759   4.311   8.704  0.00  0.00    +0.321 C 
ATOM      7  O   ALA A   1      21.550   5.143   8.181  0.00  0.00    -0.249 OA
BRANCH   6   8
ATOM      8  OXT ALA A   1      21.191   3.015   8.966  0.00  0.00    -0.479 OA
ATOM      9  HXT ALA A   1      20.578   2.343   9.412  0.00  0.00    +0.295 HD
ENDBRANCH   6   8
ENDBRANCH   1   6
TORSDOF 3
ENDMDL
MODEL 8
REMARK VINA RESULT:      -3.4     20.204     20.555
REMARK  Name = peptide_14_GDNRCCNDRK
REMARK  4 active torsions:
REMARK  status: ('A' for Active; 'I' for Inactive)
REMARK    1  A    between atoms: N_1  and  CA_2
REMARK    2  A    between atoms: CA_2  and  CB_3
REMARK    3  A    between atoms: CA_2  and  C_4
REMARK    4  A    between atoms: C_4  and  OXT_6
REMARK                            x       y       z     vdW  Elec       q    Type
REMARK                         _______ _______ _______ _____ _____    ______ ____
ROOT
ATOM      1  CA  ALA A   1       9.844  -5.187  42.756  0.00  0.00    +0.158 C 
ATOM      2  CB  ALA A   1      11.373  -5.205  42.752  0.00  0.00    +0.036 C 
ENDROOT
BRANCH   1   3
ATOM      3  N   ALA A   1       9.355  -3.819  42.575  0.00  0.00    -0.319 NA
ATOM      4  H1  ALA A   1       8.338  -3.791  42.822  0.00  0.00    +0.119 HD
ATOM      5  H2  ALA A   1       9.855  -3.177  43.233  0.00  0.00    +0.119 HD
ENDBRANCH   1   3
BRANCH   1   6
ATOM      6  C   ALA A   1       9.306  -5.790  44.026  0.00  0.00    +0.321 C 
ATOM      7  O   ALA A   1       9.430  -7.025  44.249  0.00  0.00    -0.249 OA
BRANCH   6   8
ATOM      8  OXT ALA A   1       8.666  -4.980  44.958  0.00  0.00    -0.479 OA
ATOM      9  HXT ALA A   1       8.952  -4.018  45.093  0.00  0.00    +0.295 HD
ENDBRANCH   6   8
ENDBRANCH   1   6
TORSDOF 3
ENDMDL
MODEL 9
REMARK VINA RESULT:      -3.4     19.134     19.733
REMARK  Name = peptide_14_GDNRCCNDRK
REMARK  4 active torsions:
REMARK  status: ('A' for Active; 'I' for Inactive)
REMARK    1  A    between atoms: N_1  and  CA_2
REMARK    2  A    between atoms: CA_2  and  CB_3
REMARK    3  A    between atoms: CA_2  and  C_4
REMARK    4  A    between atoms: C_4  and  OXT_6
REMARK                            x       y       z     vdW  Elec       q    Type
REMARK                         _______ _______ _______ _____ _____    ______ ____
ROOT
ATOM      1  CA  ALA A   1       9.631  -5.320  43.469  0.00  0.00    +0.158 C 
ATOM      2  CB  ALA A   1       8.970  -6.302  42.499  0.00  0.00    +0.036 C 
ENDROOT
BRANCH   1   3
ATOM      3  N   ALA A   1       8.629  -4.761  44.378  0.00  0.00    -0.319 NA
ATOM      4  H1  ALA A   1       7.691  -4.815  43.918  0.00  0.00    +0.119 HD
ATOM      5  H2  ALA A   1       8.584  -5.338  45.250  0.00  0.00    +0.119 HD
ENDBRANCH   1   3
BRANCH   1   6
ATOM      6  C   ALA A   1      10.349  -4.230  42.718  0.00  0.00    +0.321 C 
ATOM      7  O   ALA A   1      11.599  -4.101  42.824  0.00  0.00    -0.249 OA
BRANCH   6   8
ATOM      8  OXT ALA A   1       9.629  -3.361  41.906  0.00  0.00    -0.479 OA
ATOM      9  HXT ALA A   1       8.628  -3.466  41.791  0.00  0.00    +0.295 HD
ENDBRANCH   6   8
ENDBRANCH   1   6
TORSDOF 3
ENDMDL
