MODEL 1
REMARK VINA RESULT:      -4.8      0.000      0.000
REMARK  Name = peptide_33_HTHHDAYRVI
REMARK  5 active torsions:
REMARK  status: ('A' for Active; 'I' for Inactive)
REMARK    1  A    between atoms: N_1  and  CA_2
REMARK    2  A    between atoms: CA_2  and  CB_3
REMARK    3  A    between atoms: CA_2  and  C_10
REMARK    4  A    between atoms: CB_3  and  CG_4
REMARK    5  A    between atoms: C_10  and  OXT_12
REMARK                            x       y       z     vdW  Elec       q    Type
REMARK                         _______ _______ _______ _____ _____    ______ ____
ROOT
ATOM      1  CA  PHE A   1       9.688  -5.825  42.874  0.00  0.00    +0.165 C 
ENDROOT
BRANCH   1   2
ATOM      2  N   PHE A   1       8.790  -6.213  41.784  0.00  0.00    -0.318 NA
ATOM      3  H1  PHE A   1       9.327  -6.198  40.887  0.00  0.00    +0.119 HD
ATOM      4  H2  PHE A   1       8.021  -5.509  41.698  0.00  0.00    +0.119 HD
ENDBRANCH   1   2
BRANCH   1   5
ATOM      5  C   PHE A   1       8.973  -5.978  44.187  0.00  0.00    +0.322 C 
ATOM      6  O   PHE A   1       8.630  -7.122  44.590  0.00  0.00    -0.249 OA
BRANCH   5   7
ATOM      7  OXT PHE A   1       8.701  -4.858  44.968  0.00  0.00    -0.479 OA
ATOM      8  HXT PHE A   1       8.406  -3.987  44.543  0.00  0.00    +0.295 HD
ENDBRANCH   5   7
ENDBRANCH   1   5
BRANCH   1   9
ATOM      9  CB  PHE A   1      10.198  -4.381  42.680  0.00  0.00    +0.065 C 
BRANCH   9  10
ATOM     10  CG  PHE A   1      11.621  -4.355  42.181  0.00  0.00    -0.045 A 
ATOM     11  CD1 PHE A   1      12.589  -5.194  42.760  0.00  0.00    +0.003 A 
ATOM     12  CE1 PHE A   1      13.915  -5.149  42.319  0.00  0.00    +0.000 A 
ATOM     13  CZ  PHE A   1      14.286  -4.263  41.304  0.00  0.00    +0.000 A 
ATOM     14  CE2 PHE A   1      13.332  -3.417  40.730  0.00  0.00    +0.000 A 
ATOM     15  CD2 PHE A   1      12.005  -3.460  41.168  0.00  0.00    +0.003 A 
ENDBRANCH   9  10
ENDBRANCH   1   9
TORSDOF 5
ENDMDL
MODEL 2
REMARK VINA RESULT:      -4.8     16.283     17.196
REMARK  Name = peptide_33_HTHHDAYRVI
REMARK  5 active torsions:
REMARK  status: ('A' for Active; 'I' for Inactive)
REMARK    1  A    between atoms: N_1  and  CA_2
REMARK    2  A    between atoms: CA_2  and  CB_3
REMARK    3  A    between atoms: CA_2  and  C_10
REMARK    4  A    between atoms: CB_3  and  CG_4
REMARK    5  A    between atoms: C_10  and  OXT_12
REMARK                            x       y       z     vdW  Elec       q    Type
REMARK                         _______ _______ _______ _____ _____    ______ ____
ROOT
ATOM      1  CA  PHE A   1       6.957  -2.784  27.983  0.00  0.00    +0.165 C 
ENDROOT
BRANCH   1   2
ATOM      2  N   PHE A   1       8.379  -3.118  27.877  0.00  0.00    -0.318 NA
ATOM      3  H1  PHE A   1       8.483  -3.939  27.237  0.00  0.00    +0.119 HD
ATOM      4  H2  PHE A   1       8.741  -3.408  28.815  0.00  0.00    +0.119 HD
ENDBRANCH   1   2
BRANCH   1   5
ATOM      5  C   PHE A   1       6.510  -2.958  29.408  0.00  0.00    +0.322 C 
ATOM      6  O   PHE A   1       5.918  -4.014  29.759  0.00  0.00    -0.249 OA
BRANCH   5   7
ATOM      7  OXT PHE A   1       6.763  -1.961  30.345  0.00  0.00    -0.479 OA
ATOM      8  HXT PHE A   1       7.696  -1.580  30.459  0.00  0.00    +0.295 HD
ENDBRANCH   5   7
ENDBRANCH   1   5
BRANCH   1   9
ATOM      9  CB  PHE A   1       6.114  -3.649  27.022  0.00  0.00    +0.065 C 
BRANCH   9  10
ATOM     10  CG  PHE A   1       5.511  -2.824  25.913  0.00  0.00    -0.045 A 
ATOM     11  CD1 PHE A   1       5.934  -1.499  25.707  0.00  0.00    +0.003 A 
ATOM     12  CE1 PHE A   1       5.353  -0.724  24.699  0.00  0.00    +0.000 A 
ATOM     13  CZ  PHE A   1       4.344  -1.261  23.895  0.00  0.00    +0.000 A 
ATOM     14  CE2 PHE A   1       3.910  -2.574  24.100  0.00  0.00    +0.000 A 
ATOM     15  CD2 PHE A   1       4.488  -3.352  25.107  0.00  0.00    +0.003 A 
ENDBRANCH   9  10
ENDBRANCH   1   9
TORSDOF 5
ENDMDL
MODEL 3
REMARK VINA RESULT:      -4.8     34.659     35.811
REMARK  Name = peptide_33_HTHHDAYRVI
REMARK  5 active torsions:
REMARK  status: ('A' for Active; 'I' for Inactive)
REMARK    1  A    between atoms: N_1  and  CA_2
REMARK    2  A    between atoms: CA_2  and  CB_3
REMARK    3  A    between atoms: CA_2  and  C_10
REMARK    4  A    between atoms: CB_3  and  CG_4
REMARK    5  A    between atoms: C_10  and  OXT_12
REMARK                            x       y       z     vdW  Elec       q    Type
REMARK                         _______ _______ _______ _____ _____    ______ ____
ROOT
ATOM      1  CA  PHE A   1      19.364   4.753   9.066  0.00  0.00    +0.165 C 
ENDROOT
BRANCH   1   2
ATOM      2  N   PHE A   1      18.829   3.854  10.091  0.00  0.00    -0.318 NA
ATOM      3  H1  PHE A   1      18.516   2.969   9.630  0.00  0.00    +0.119 HD
ATOM      4  H2  PHE A   1      17.986   4.290  10.532  0.00  0.00    +0.119 HD
ENDBRANCH   1   2
BRANCH   1   5
ATOM      5  C   PHE A   1      20.746   4.302   8.681  0.00  0.00    +0.322 C 
ATOM      6  O   PHE A   1      21.540   5.106   8.124  0.00  0.00    -0.249 OA
BRANCH   5   7
ATOM      7  OXT PHE A   1      21.156   3.000   8.955  0.00  0.00    -0.479 OA
ATOM      8  HXT PHE A   1      21.056   2.609   9.885  0.00  0.00    +0.295 HD
ENDBRANCH   5   7
ENDBRANCH   1   5
BRANCH   1   9
ATOM      9  CB  PHE A   1      19.370   6.214   9.562  0.00  0.00    +0.065 C 
BRANCH   9  10
ATOM     10  CG  PHE A   1      17.982   6.690   9.910  0.00  0.00    -0.045 A 
ATOM     11  CD1 PHE A   1      16.935   6.556   8.983  0.00  0.00    +0.003 A 
ATOM     12  CE1 PHE A   1      15.655   7.024   9.294  0.00  0.00    +0.000 A 
ATOM     13  CZ  PHE A   1      15.413   7.635  10.527  0.00  0.00    +0.000 A 
ATOM     14  CE2 PHE A   1      16.451   7.782  11.451  0.00  0.00    +0.000 A 
ATOM     15  CD2 PHE A   1      17.732   7.315  11.144  0.00  0.00    +0.003 A 
ENDBRANCH   9  10
ENDBRANCH   1   9
TORSDOF 5
ENDMDL
MODEL 4
REMARK VINA RESULT:      -4.8     34.888     35.929
REMARK  Name = peptide_33_HTHHDAYRVI
REMARK  5 active torsions:
REMARK  status: ('A' for Active; 'I' for Inactive)
REMARK    1  A    between atoms: N_1  and  CA_2
REMARK    2  A    between atoms: CA_2  and  CB_3
REMARK    3  A    between atoms: CA_2  and  C_10
REMARK    4  A    between atoms: CB_3  and  CG_4
REMARK    5  A    between atoms: C_10  and  OXT_12
REMARK                            x       y       z     vdW  Elec       q    Type
REMARK                         _______ _______ _______ _____ _____    ______ ____
ROOT
ATOM      1  CA  PHE A   1      17.829   6.275   9.034  0.00  0.00    +0.165 C 
ENDROOT
BRANCH   1   2
ATOM      2  N   PHE A   1      17.150   7.112   8.042  0.00  0.00    -0.318 NA
ATOM      3  H1  PHE A   1      17.380   8.114   8.237  0.00  0.00    +0.119 HD
ATOM      4  H2  PHE A   1      16.114   7.005   8.144  0.00  0.00    +0.119 HD
ENDBRANCH   1   2
BRANCH   1   5
ATOM      5  C   PHE A   1      16.861   5.917  10.128  0.00  0.00    +0.322 C 
ATOM      6  O   PHE A   1      15.691   5.548   9.839  0.00  0.00    -0.249 OA
BRANCH   5   7
ATOM      7  OXT PHE A   1      17.260   5.976  11.460  0.00  0.00    -0.479 OA
ATOM      8  HXT PHE A   1      17.427   6.867  11.913  0.00  0.00    +0.295 HD
ENDBRANCH   5   7
ENDBRANCH   1   5
BRANCH   1   9
ATOM      9  CB  PHE A   1      19.073   6.991   9.601  0.00  0.00    +0.065 C 
BRANCH   9  10
ATOM     10  CG  PHE A   1      20.325   6.176   9.398  0.00  0.00    -0.045 A 
ATOM     11  CD1 PHE A   1      20.242   4.784   9.223  0.00  0.00    +0.003 A 
ATOM     12  CE1 PHE A   1      21.405   4.023   9.065  0.00  0.00    +0.000 A 
ATOM     13  CZ  PHE A   1      22.657   4.645   9.088  0.00  0.00    +0.000 A 
ATOM     14  CE2 PHE A   1      22.749   6.027   9.272  0.00  0.00    +0.000 A 
ATOM     15  CD2 PHE A   1      21.589   6.791   9.430  0.00  0.00    +0.003 A 
ENDBRANCH   9  10
ENDBRANCH   1   9
TORSDOF 5
ENDMDL
MODEL 5
REMARK VINA RESULT:      -4.7     35.517     36.579
REMARK  Name = peptide_33_HTHHDAYRVI
REMARK  5 active torsions:
REMARK  status: ('A' for Active; 'I' for Inactive)
REMARK    1  A    between atoms: N_1  and  CA_2
REMARK    2  A    between atoms: CA_2  and  CB_3
REMARK    3  A    between atoms: CA_2  and  C_10
REMARK    4  A    between atoms: CB_3  and  CG_4
REMARK    5  A    between atoms: C_10  and  OXT_12
REMARK                            x       y       z     vdW  Elec       q    Type
REMARK                         _______ _______ _______ _____ _____    ______ ____
ROOT
ATOM      1  CA  PHE A   1      18.544   5.713   8.649  0.00  0.00    +0.165 C 
ENDROOT
BRANCH   1   2
ATOM      2  N   PHE A   1      17.356   6.535   8.407  0.00  0.00    -0.318 NA
ATOM      3  H1  PHE A   1      17.589   7.253   7.682  0.00  0.00    +0.119 HD
ATOM      4  H2  PHE A   1      17.103   7.049   9.283  0.00  0.00    +0.119 HD
ENDBRANCH   1   2
BRANCH   1   5
ATOM      5  C   PHE A   1      18.119   4.356   9.137  0.00  0.00    +0.322 C 
ATOM      6  O   PHE A   1      17.159   3.758   8.581  0.00  0.00    -0.249 OA
BRANCH   5   7
ATOM      7  OXT PHE A   1      18.795   3.751  10.193  0.00  0.00    -0.479 OA
ATOM      8  HXT PHE A   1      18.428   3.795  11.137  0.00  0.00    +0.295 HD
ENDBRANCH   5   7
ENDBRANCH   1   5
BRANCH   1   9
ATOM      9  CB  PHE A   1      19.493   6.398   9.655  0.00  0.00    +0.065 C 
BRANCH   9  10
ATOM     10  CG  PHE A   1      20.920   6.390   9.170  0.00  0.00    -0.045 A 
ATOM     11  CD1 PHE A   1      21.750   5.287   9.433  0.00  0.00    +0.003 A 
ATOM     12  CE1 PHE A   1      23.083   5.292   9.009  0.00  0.00    +0.000 A 
ATOM     13  CZ  PHE A   1      23.598   6.399   8.328  0.00  0.00    +0.000 A 
ATOM     14  CE2 PHE A   1      22.782   7.504   8.072  0.00  0.00    +0.000 A 
ATOM     15  CD2 PHE A   1      21.449   7.503   8.494  0.00  0.00    +0.003 A 
ENDBRANCH   9  10
ENDBRANCH   1   9
TORSDOF 5
ENDMDL
MODEL 6
REMARK VINA RESULT:      -4.7     18.979     20.699
REMARK  Name = peptide_33_HTHHDAYRVI
REMARK  5 active torsions:
REMARK  status: ('A' for Active; 'I' for Inactive)
REMARK    1  A    between atoms: N_1  and  CA_2
REMARK    2  A    between atoms: CA_2  and  CB_3
REMARK    3  A    between atoms: CA_2  and  C_10
REMARK    4  A    between atoms: CB_3  and  CG_4
REMARK    5  A    between atoms: C_10  and  OXT_12
REMARK                            x       y       z     vdW  Elec       q    Type
REMARK                         _______ _______ _______ _____ _____    ______ ____
ROOT
ATOM      1  CA  PHE A   1      -9.989  -1.027  47.919  0.00  0.00    +0.165 C 
ENDROOT
BRANCH   1   2
ATOM      2  N   PHE A   1     -10.919  -1.135  49.045  0.00  0.00    -0.318 NA
ATOM      3  H1  PHE A   1     -10.785  -2.066  49.502  0.00  0.00    +0.119 HD
ATOM      4  H2  PHE A   1     -11.903  -1.102  48.691  0.00  0.00    +0.119 HD
ENDBRANCH   1   2
BRANCH   1   5
ATOM      5  C   PHE A   1     -10.648  -1.563  46.678  0.00  0.00    +0.322 C 
ATOM      6  O   PHE A   1     -10.654  -2.803  46.452  0.00  0.00    -0.249 OA
BRANCH   5   7
ATOM      7  OXT PHE A   1     -11.265  -0.693  45.784  0.00  0.00    -0.479 OA
ATOM      8  HXT PHE A   1     -12.263  -0.522  45.831  0.00  0.00    +0.295 HD
ENDBRANCH   5   7
ENDBRANCH   1   5
BRANCH   1   9
ATOM      9  CB  PHE A   1      -8.671  -1.771  48.219  0.00  0.00    +0.065 C 
BRANCH   9  10
ATOM     10  CG  PHE A   1      -7.486  -0.840  48.188  0.00  0.00    -0.045 A 
ATOM     11  CD1 PHE A   1      -7.677   0.551  48.248  0.00  0.00    +0.003 A 
ATOM     12  CE1 PHE A   1      -6.580   1.416  48.188  0.00  0.00    +0.000 A 
ATOM     13  CZ  PHE A   1      -5.287   0.900  48.062  0.00  0.00    +0.000 A 
ATOM     14  CE2 PHE A   1      -5.089  -0.481  47.991  0.00  0.00    +0.000 A 
ATOM     15  CD2 PHE A   1      -6.183  -1.350  48.050  0.00  0.00    +0.003 A 
ENDBRANCH   9  10
ENDBRANCH   1   9
TORSDOF 5
ENDMDL
MODEL 7
REMARK VINA RESULT:      -4.7     16.323     17.234
REMARK  Name = peptide_33_HTHHDAYRVI
REMARK  5 active torsions:
REMARK  status: ('A' for Active; 'I' for Inactive)
REMARK    1  A    between atoms: N_1  and  CA_2
REMARK    2  A    between atoms: CA_2  and  CB_3
REMARK    3  A    between atoms: CA_2  and  C_10
REMARK    4  A    between atoms: CB_3  and  CG_4
REMARK    5  A    between atoms: C_10  and  OXT_12
REMARK                            x       y       z     vdW  Elec       q    Type
REMARK                         _______ _______ _______ _____ _____    ______ ____
ROOT
ATOM      1  CA  PHE A   1       6.784  -2.936  28.014  0.00  0.00    +0.165 C 
ENDROOT
BRANCH   1   2
ATOM      2  N   PHE A   1       8.239  -3.078  27.926  0.00  0.00    -0.318 NA
ATOM      3  H1  PHE A   1       8.579  -2.536  27.099  0.00  0.00    +0.119 HD
ATOM      4  H2  PHE A   1       8.483  -4.082  27.761  0.00  0.00    +0.119 HD
ENDBRANCH   1   2
BRANCH   1   5
ATOM      5  C   PHE A   1       6.322  -3.376  29.375  0.00  0.00    +0.322 C 
ATOM      6  O   PHE A   1       6.638  -2.708  30.396  0.00  0.00    -0.249 OA
BRANCH   5   7
ATOM      7  OXT PHE A   1       5.532  -4.514  29.509  0.00  0.00    -0.479 OA
ATOM      8  HXT PHE A   1       5.901  -5.356  29.935  0.00  0.00    +0.295 HD
ENDBRANCH   5   7
ENDBRANCH   1   5
BRANCH   1   9
ATOM      9  CB  PHE A   1       6.084  -3.739  26.898  0.00  0.00    +0.065 C 
BRANCH   9  10
ATOM     10  CG  PHE A   1       5.456  -2.834  25.869  0.00  0.00    -0.045 A 
ATOM     11  CD1 PHE A   1       4.410  -3.305  25.056  0.00  0.00    +0.003 A 
ATOM     12  CE1 PHE A   1       3.848  -2.476  24.081  0.00  0.00    +0.000 A 
ATOM     13  CZ  PHE A   1       4.329  -1.175  23.905  0.00  0.00    +0.000 A 
ATOM     14  CE2 PHE A   1       5.376  -0.703  24.701  0.00  0.00    +0.000 A 
ATOM     15  CD2 PHE A   1       5.940  -1.528  25.678  0.00  0.00    +0.003 A 
ENDBRANCH   9  10
ENDBRANCH   1   9
TORSDOF 5
ENDMDL
MODEL 8
REMARK VINA RESULT:      -4.6     33.015     34.532
REMARK  Name = peptide_33_HTHHDAYRVI
REMARK  5 active torsions:
REMARK  status: ('A' for Active; 'I' for Inactive)
REMARK    1  A    between atoms: N_1  and  CA_2
REMARK    2  A    between atoms: CA_2  and  CB_3
REMARK    3  A    between atoms: CA_2  and  C_10
REMARK    4  A    between atoms: CB_3  and  CG_4
REMARK    5  A    between atoms: C_10  and  OXT_12
REMARK                            x       y       z     vdW  Elec       q    Type
REMARK                         _______ _______ _______ _____ _____    ______ ____
ROOT
ATOM      1  CA  PHE A   1      17.681   6.009   9.517  0.00  0.00    +0.165 C 
ENDROOT
BRANCH   1   2
ATOM      2  N   PHE A   1      17.194   6.550   8.246  0.00  0.00    -0.318 NA
ATOM      3  H1  PHE A   1      16.594   7.383   8.446  0.00  0.00    +0.119 HD
ATOM      4  H2  PHE A   1      16.589   5.839   7.773  0.00  0.00    +0.119 HD
ENDBRANCH   1   2
BRANCH   1   5
ATOM      5  C   PHE A   1      17.981   4.545   9.352  0.00  0.00    +0.322 C 
ATOM      6  O   PHE A   1      17.298   3.847   8.555  0.00  0.00    -0.249 OA
BRANCH   5   7
ATOM      7  OXT PHE A   1      19.023   3.961  10.067  0.00  0.00    -0.479 OA
ATOM      8  HXT PHE A   1      18.835   3.354  10.856  0.00  0.00    +0.295 HD
ENDBRANCH   5   7
ENDBRANCH   1   5
BRANCH   1   9
ATOM      9  CB  PHE A   1      16.657   6.247  10.646  0.00  0.00    +0.065 C 
BRANCH   9  10
ATOM     10  CG  PHE A   1      17.193   7.188  11.696  0.00  0.00    -0.045 A 
ATOM     11  CD1 PHE A   1      18.010   8.270  11.325  0.00  0.00    +0.003 A 
ATOM     12  CE1 PHE A   1      18.532   9.125  12.300  0.00  0.00    +0.000 A 
ATOM     13  CZ  PHE A   1      18.250   8.902  13.651  0.00  0.00    +0.000 A 
ATOM     14  CE2 PHE A   1      17.448   7.822  14.029  0.00  0.00    +0.000 A 
ATOM     15  CD2 PHE A   1      16.923   6.965  13.057  0.00  0.00    +0.003 A 
ENDBRANCH   9  10
ENDBRANCH   1   9
TORSDOF 5
ENDMDL
MODEL 9
REMARK VINA RESULT:      -4.6     20.148     20.959
REMARK  Name = peptide_33_HTHHDAYRVI
REMARK  5 active torsions:
REMARK  status: ('A' for Active; 'I' for Inactive)
REMARK    1  A    between atoms: N_1  and  CA_2
REMARK    2  A    between atoms: CA_2  and  CB_3
REMARK    3  A    between atoms: CA_2  and  C_10
REMARK    4  A    between atoms: CB_3  and  CG_4
REMARK    5  A    between atoms: C_10  and  OXT_12
REMARK                            x       y       z     vdW  Elec       q    Type
REMARK                         _______ _______ _______ _____ _____    ______ ____
ROOT
ATOM      1  CA  PHE A   1       0.776   0.980  25.330  0.00  0.00    +0.165 C 
ENDROOT
BRANCH   1   2
ATOM      2  N   PHE A   1       0.174   0.314  26.488  0.00  0.00    -0.318 NA
ATOM      3  H1  PHE A   1       0.931  -0.154  27.036  0.00  0.00    +0.119 HD
ATOM      4  H2  PHE A   1      -0.480  -0.434  26.160  0.00  0.00    +0.119 HD
ENDBRANCH   1   2
BRANCH   1   5
ATOM      5  C   PHE A   1      -0.124   2.095  24.874  0.00  0.00    +0.322 C 
ATOM      6  O   PHE A   1      -1.275   2.221  25.371  0.00  0.00    -0.249 OA
BRANCH   5   7
ATOM      7  OXT PHE A   1       0.319   2.999  23.912  0.00  0.00    -0.479 OA
ATOM      8  HXT PHE A   1       0.600   2.682  22.992  0.00  0.00    +0.295 HD
ENDBRANCH   5   7
ENDBRANCH   1   5
BRANCH   1   9
ATOM      9  CB  PHE A   1       1.040  -0.027  24.192  0.00  0.00    +0.065 C 
BRANCH   9  10
ATOM     10  CG  PHE A   1       2.440  -0.587  24.256  0.00  0.00    -0.045 A 
ATOM     11  CD1 PHE A   1       2.642  -1.968  24.420  0.00  0.00    +0.003 A 
ATOM     12  CE1 PHE A   1       3.939  -2.483  24.510  0.00  0.00    +0.000 A 
ATOM     13  CZ  PHE A   1       5.040  -1.625  24.443  0.00  0.00    +0.000 A 
ATOM     14  CE2 PHE A   1       4.847  -0.250  24.290  0.00  0.00    +0.000 A 
ATOM     15  CD2 PHE A   1       3.553   0.270  24.200  0.00  0.00    +0.003 A 
ENDBRANCH   9  10
ENDBRANCH   1   9
TORSDOF 5
ENDMDL
