MODEL 1
REMARK VINA RESULT:      -6.2      0.000      0.000
REMARK  Name = peptide_19_NVGYDYRNSG
REMARK  5 active torsions:
REMARK  status: ('A' for Active; 'I' for Inactive)
REMARK    1  A    between atoms: N_1  and  CA_2
REMARK    2  A    between atoms: CA_2  and  CB_3
REMARK    3  A    between atoms: CA_2  and  C_13
REMARK    4  A    between atoms: CB_3  and  CG_4
REMARK    5  A    between atoms: C_13  and  OXT_15
REMARK                            x       y       z     vdW  Elec       q    Type
REMARK                         _______ _______ _______ _____ _____    ______ ____
ROOT
ATOM      1  CG  TRP A   1      18.334   5.299   9.119  0.00  0.00    -0.020 A 
ATOM      2  CD1 TRP A   1      18.126   3.923   9.104  0.00  0.00    +0.087 A 
ATOM      3  NE1 TRP A   1      19.309   3.267   9.147  0.00  0.00    -0.360 N 
ATOM      4  CE2 TRP A   1      20.260   4.218   9.176  0.00  0.00    +0.047 A 
ATOM      5  CZ2 TRP A   1      21.641   4.030   9.205  0.00  0.00    +0.026 A 
ATOM      6  CH2 TRP A   1      22.460   5.174   9.212  0.00  0.00    +0.002 A 
ATOM      7  CZ3 TRP A   1      21.887   6.465   9.187  0.00  0.00    +0.001 A 
ATOM      8  CE3 TRP A   1      20.490   6.623   9.156  0.00  0.00    +0.010 A 
ATOM      9  CD2 TRP A   1      19.704   5.471   9.155  0.00  0.00    +0.003 A 
ATOM     10  HE1 TRP A   1      19.450   2.233   9.142  0.00  0.00    +0.165 HD
ENDROOT
BRANCH   1  11
ATOM     11  CB  TRP A   1      17.281   6.366   9.011  0.00  0.00    +0.067 C 
BRANCH  11  12
ATOM     12  CA  TRP A   1      16.175   6.180  10.070  0.00  0.00    +0.165 C 
BRANCH  12  13
ATOM     13  N   TRP A   1      14.983   6.958   9.725  0.00  0.00    -0.318 NA
ATOM     14  H1  TRP A   1      14.141   6.352   9.860  0.00  0.00    +0.119 HD
ATOM     15  H2  TRP A   1      15.017   7.220   8.712  0.00  0.00    +0.119 HD
ENDBRANCH  12  13
BRANCH  12  16
ATOM     16  C   TRP A   1      16.659   6.577  11.437  0.00  0.00    +0.322 C 
ATOM     17  O   TRP A   1      17.365   7.611  11.589  0.00  0.00    -0.249 OA
BRANCH  16  18
ATOM     18  OXT TRP A   1      16.352   5.781  12.537  0.00  0.00    -0.479 OA
ATOM     19  HXT TRP A   1      16.339   6.169  13.472  0.00  0.00    +0.295 HD
ENDBRANCH  16  18
ENDBRANCH  12  16
ENDBRANCH  11  12
ENDBRANCH   1  11
TORSDOF 5
ENDMDL
MODEL 2
REMARK VINA RESULT:      -6.2     46.073     47.411
REMARK  Name = peptide_19_NVGYDYRNSG
REMARK  5 active torsions:
REMARK  status: ('A' for Active; 'I' for Inactive)
REMARK    1  A    between atoms: N_1  and  CA_2
REMARK    2  A    between atoms: CA_2  and  CB_3
REMARK    3  A    between atoms: CA_2  and  C_13
REMARK    4  A    between atoms: CB_3  and  CG_4
REMARK    5  A    between atoms: C_13  and  OXT_15
REMARK                            x       y       z     vdW  Elec       q    Type
REMARK                         _______ _______ _______ _____ _____    ______ ____
ROOT
ATOM      1  CG  TRP A   1      -9.506  -0.156  47.934  0.00  0.00    -0.020 A 
ATOM      2  CD1 TRP A   1      -9.864   1.189  47.905  0.00  0.00    +0.087 A 
ATOM      3  NE1 TRP A   1      -8.762   1.972  47.954  0.00  0.00    -0.360 N 
ATOM      4  CE2 TRP A   1      -7.714   1.132  48.025  0.00  0.00    +0.047 A 
ATOM      5  CZ2 TRP A   1      -6.364   1.471  48.113  0.00  0.00    +0.026 A 
ATOM      6  CH2 TRP A   1      -5.427   0.425  48.198  0.00  0.00    +0.002 A 
ATOM      7  CZ3 TRP A   1      -5.856  -0.921  48.196  0.00  0.00    +0.001 A 
ATOM      8  CE3 TRP A   1      -7.224  -1.233  48.109  0.00  0.00    +0.010 A 
ATOM      9  CD2 TRP A   1      -8.128  -0.175  48.020  0.00  0.00    +0.003 A 
ATOM     10  HE1 TRP A   1      -8.735   3.015  47.952  0.00  0.00    +0.165 HD
ENDROOT
BRANCH   1  11
ATOM     11  CB  TRP A   1     -10.442  -1.331  47.970  0.00  0.00    +0.067 C 
BRANCH  11  12
ATOM     12  CA  TRP A   1     -11.729  -1.056  47.165  0.00  0.00    +0.165 C 
BRANCH  12  13
ATOM     13  N   TRP A   1     -12.907  -1.565  47.871  0.00  0.00    -0.318 NA
ATOM     14  H1  TRP A   1     -12.877  -2.610  47.858  0.00  0.00    +0.119 HD
ATOM     15  H2  TRP A   1     -13.773  -1.274  47.361  0.00  0.00    +0.119 HD
ENDBRANCH  12  13
BRANCH  12  16
ATOM     16  C   TRP A   1     -11.656  -1.672  45.795  0.00  0.00    +0.322 C 
ATOM     17  O   TRP A   1     -11.608  -2.924  45.660  0.00  0.00    -0.249 OA
BRANCH  16  18
ATOM     18  OXT TRP A   1     -11.609  -0.852  44.671  0.00  0.00    -0.479 OA
ATOM     19  HXT TRP A   1     -12.300  -0.939  43.936  0.00  0.00    +0.295 HD
ENDBRANCH  16  18
ENDBRANCH  12  16
ENDBRANCH  11  12
ENDBRANCH   1  11
TORSDOF 5
ENDMDL
MODEL 3
REMARK VINA RESULT:      -5.5     35.142     36.769
REMARK  Name = peptide_19_NVGYDYRNSG
REMARK  5 active torsions:
REMARK  status: ('A' for Active; 'I' for Inactive)
REMARK    1  A    between atoms: N_1  and  CA_2
REMARK    2  A    between atoms: CA_2  and  CB_3
REMARK    3  A    between atoms: CA_2  and  C_13
REMARK    4  A    between atoms: CB_3  and  CG_4
REMARK    5  A    between atoms: C_13  and  OXT_15
REMARK                            x       y       z     vdW  Elec       q    Type
REMARK                         _______ _______ _______ _____ _____    ______ ____
ROOT
ATOM      1  CG  TRP A   1       9.684  -5.703  43.435  0.00  0.00    -0.020 A 
ATOM      2  CD1 TRP A   1       9.043  -4.530  43.046  0.00  0.00    +0.087 A 
ATOM      3  NE1 TRP A   1       9.894  -3.732  42.361  0.00  0.00    -0.360 N 
ATOM      4  CE2 TRP A   1      11.069  -4.387  42.326  0.00  0.00    +0.047 A 
ATOM      5  CZ2 TRP A   1      12.259  -3.954  41.744  0.00  0.00    +0.026 A 
ATOM      6  CH2 TRP A   1      13.383  -4.796  41.841  0.00  0.00    +0.002 A 
ATOM      7  CZ3 TRP A   1      13.292  -6.035  42.512  0.00  0.00    +0.001 A 
ATOM      8  CE3 TRP A   1      12.078  -6.445  43.092  0.00  0.00    +0.010 A 
ATOM      9  CD2 TRP A   1      10.981  -5.592  42.974  0.00  0.00    +0.003 A 
ATOM     10  HE1 TRP A   1       9.683  -2.793  41.958  0.00  0.00    +0.165 HD
ENDROOT
BRANCH   1  11
ATOM     11  CB  TRP A   1       9.101  -6.807  44.272  0.00  0.00    +0.067 C 
BRANCH  11  12
ATOM     12  CA  TRP A   1       7.771  -6.381  44.926  0.00  0.00    +0.165 C 
BRANCH  12  13
ATOM     13  N   TRP A   1       7.809  -6.588  46.375  0.00  0.00    -0.318 NA
ATOM     14  H1  TRP A   1       7.014  -7.215  46.642  0.00  0.00    +0.119 HD
ATOM     15  H2  TRP A   1       7.661  -5.675  46.864  0.00  0.00    +0.119 HD
ENDBRANCH  12  13
BRANCH  12  16
ATOM     16  C   TRP A   1       6.610  -7.134  44.338  0.00  0.00    +0.322 C 
ATOM     17  O   TRP A   1       6.633  -7.504  43.133  0.00  0.00    -0.249 OA
BRANCH  16  18
ATOM     18  OXT TRP A   1       5.489  -7.395  45.121  0.00  0.00    -0.479 OA
ATOM     19  HXT TRP A   1       4.961  -8.252  45.002  0.00  0.00    +0.295 HD
ENDBRANCH  16  18
ENDBRANCH  12  16
ENDBRANCH  11  12
ENDBRANCH   1  11
TORSDOF 5
ENDMDL
MODEL 4
REMARK VINA RESULT:      -5.4     45.131     46.994
REMARK  Name = peptide_19_NVGYDYRNSG
REMARK  5 active torsions:
REMARK  status: ('A' for Active; 'I' for Inactive)
REMARK    1  A    between atoms: N_1  and  CA_2
REMARK    2  A    between atoms: CA_2  and  CB_3
REMARK    3  A    between atoms: CA_2  and  C_13
REMARK    4  A    between atoms: CB_3  and  CG_4
REMARK    5  A    between atoms: C_13  and  OXT_15
REMARK                            x       y       z     vdW  Elec       q    Type
REMARK                         _______ _______ _______ _____ _____    ______ ____
ROOT
ATOM      1  CG  TRP A   1      -7.169  -0.560  48.391  0.00  0.00    -0.020 A 
ATOM      2  CD1 TRP A   1      -6.656   0.726  48.253  0.00  0.00    +0.087 A 
ATOM      3  NE1 TRP A   1      -7.659   1.617  48.073  0.00  0.00    -0.360 N 
ATOM      4  CE2 TRP A   1      -8.797   0.902  48.084  0.00  0.00    +0.047 A 
ATOM      5  CZ2 TRP A   1     -10.096   1.379  47.916  0.00  0.00    +0.026 A 
ATOM      6  CH2 TRP A   1     -11.149   0.445  47.943  0.00  0.00    +0.002 A 
ATOM      7  CZ3 TRP A   1     -10.881  -0.929  48.132  0.00  0.00    +0.001 A 
ATOM      8  CE3 TRP A   1      -9.560  -1.382  48.297  0.00  0.00    +0.010 A 
ATOM      9  CD2 TRP A   1      -8.539  -0.432  48.271  0.00  0.00    +0.003 A 
ATOM     10  HE1 TRP A   1      -7.562   2.648  47.938  0.00  0.00    +0.165 HD
ENDROOT
BRANCH   1  11
ATOM     11  CB  TRP A   1      -6.377  -1.829  48.535  0.00  0.00    +0.067 C 
BRANCH  11  12
ATOM     12  CA  TRP A   1      -5.208  -1.885  47.531  0.00  0.00    +0.165 C 
BRANCH  12  13
ATOM     13  N   TRP A   1      -5.281  -3.094  46.709  0.00  0.00    -0.318 NA
ATOM     14  H1  TRP A   1      -4.385  -3.189  46.177  0.00  0.00    +0.119 HD
ATOM     15  H2  TRP A   1      -6.049  -2.993  46.005  0.00  0.00    +0.119 HD
ENDBRANCH  12  13
BRANCH  12  16
ATOM     16  C   TRP A   1      -3.881  -1.833  48.237  0.00  0.00    +0.322 C 
ATOM     17  O   TRP A   1      -3.787  -1.309  49.380  0.00  0.00    -0.249 OA
BRANCH  16  18
ATOM     18  OXT TRP A   1      -2.746  -2.339  47.611  0.00  0.00    -0.479 OA
ATOM     19  HXT TRP A   1      -2.537  -3.330  47.635  0.00  0.00    +0.295 HD
ENDBRANCH  16  18
ENDBRANCH  12  16
ENDBRANCH  11  12
ENDBRANCH   1  11
TORSDOF 5
ENDMDL
MODEL 5
REMARK VINA RESULT:      -5.3     17.993     19.136
REMARK  Name = peptide_19_NVGYDYRNSG
REMARK  5 active torsions:
REMARK  status: ('A' for Active; 'I' for Inactive)
REMARK    1  A    between atoms: N_1  and  CA_2
REMARK    2  A    between atoms: CA_2  and  CB_3
REMARK    3  A    between atoms: CA_2  and  C_13
REMARK    4  A    between atoms: CB_3  and  CG_4
REMARK    5  A    between atoms: C_13  and  OXT_15
REMARK                            x       y       z     vdW  Elec       q    Type
REMARK                         _______ _______ _______ _____ _____    ______ ____
ROOT
ATOM      1  CG  TRP A   1       8.448   7.835  25.262  0.00  0.00    -0.020 A 
ATOM      2  CD1 TRP A   1       9.751   7.940  24.782  0.00  0.00    +0.087 A 
ATOM      3  NE1 TRP A   1      10.470   6.847  25.129  0.00  0.00    -0.360 N 
ATOM      4  CE2 TRP A   1       9.636   6.062  25.832  0.00  0.00    +0.047 A 
ATOM      5  CZ2 TRP A   1       9.928   4.831  26.419  0.00  0.00    +0.026 A 
ATOM      6  CH2 TRP A   1       8.904   4.183  27.133  0.00  0.00    +0.002 A 
ATOM      7  CZ3 TRP A   1       7.626   4.774  27.245  0.00  0.00    +0.001 A 
ATOM      8  CE3 TRP A   1       7.360   6.017  26.644  0.00  0.00    +0.010 A 
ATOM      9  CD2 TRP A   1       8.394   6.633  25.939  0.00  0.00    +0.003 A 
ATOM     10  HE1 TRP A   1      11.473   6.663  24.907  0.00  0.00    +0.165 HD
ENDROOT
BRANCH   1  11
ATOM     11  CB  TRP A   1       7.366   8.872  25.148  0.00  0.00    +0.067 C 
BRANCH  11  12
ATOM     12  CA  TRP A   1       7.041   9.193  23.676  0.00  0.00    +0.165 C 
BRANCH  12  13
ATOM     13  N   TRP A   1       6.977  10.640  23.457  0.00  0.00    -0.318 NA
ATOM     14  H1  TRP A   1       6.168  10.846  22.827  0.00  0.00    +0.119 HD
ATOM     15  H2  TRP A   1       7.843  10.958  22.962  0.00  0.00    +0.119 HD
ENDBRANCH  12  13
BRANCH  12  16
ATOM     16  C   TRP A   1       5.744   8.561  23.254  0.00  0.00    +0.322 C 
ATOM     17  O   TRP A   1       4.811   9.268  22.786  0.00  0.00    -0.249 OA
BRANCH  16  18
ATOM     18  OXT TRP A   1       5.561   7.190  23.410  0.00  0.00    -0.479 OA
ATOM     19  HXT TRP A   1       4.873   6.828  24.060  0.00  0.00    +0.295 HD
ENDBRANCH  16  18
ENDBRANCH  12  16
ENDBRANCH  11  12
ENDBRANCH   1  11
TORSDOF 5
ENDMDL
MODEL 6
REMARK VINA RESULT:      -5.2     46.688     47.437
REMARK  Name = peptide_19_NVGYDYRNSG
REMARK  5 active torsions:
REMARK  status: ('A' for Active; 'I' for Inactive)
REMARK    1  A    between atoms: N_1  and  CA_2
REMARK    2  A    between atoms: CA_2  and  CB_3
REMARK    3  A    between atoms: CA_2  and  C_13
REMARK    4  A    between atoms: CB_3  and  CG_4
REMARK    5  A    between atoms: C_13  and  OXT_15
REMARK                            x       y       z     vdW  Elec       q    Type
REMARK                         _______ _______ _______ _____ _____    ______ ____
ROOT
ATOM      1  CG  TRP A   1      -9.471  -1.351  47.518  0.00  0.00    -0.020 A 
ATOM      2  CD1 TRP A   1      -9.006  -2.652  47.688  0.00  0.00    +0.087 A 
ATOM      3  NE1 TRP A   1      -7.729  -2.642  48.133  0.00  0.00    -0.360 N 
ATOM      4  CE2 TRP A   1      -7.381  -1.347  48.234  0.00  0.00    +0.047 A 
ATOM      5  CZ2 TRP A   1      -6.150  -0.831  48.636  0.00  0.00    +0.026 A 
ATOM      6  CH2 TRP A   1      -5.995   0.567  48.650  0.00  0.00    +0.002 A 
ATOM      7  CZ3 TRP A   1      -7.061   1.409  48.264  0.00  0.00    +0.001 A 
ATOM      8  CE3 TRP A   1      -8.292   0.861  47.861  0.00  0.00    +0.010 A 
ATOM      9  CD2 TRP A   1      -8.417  -0.528  47.863  0.00  0.00    +0.003 A 
ATOM     10  HE1 TRP A   1      -7.133  -3.473  48.340  0.00  0.00    +0.165 HD
ENDROOT
BRANCH   1  11
ATOM     11  CB  TRP A   1     -10.810  -0.943  46.972  0.00  0.00    +0.067 C 
BRANCH  11  12
ATOM     12  CA  TRP A   1     -11.209  -1.796  45.751  0.00  0.00    +0.165 C 
BRANCH  12  13
ATOM     13  N   TRP A   1     -11.564  -0.948  44.612  0.00  0.00    -0.318 NA
ATOM     14  H1  TRP A   1     -12.295  -0.266  44.920  0.00  0.00    +0.119 HD
ATOM     15  H2  TRP A   1     -11.989  -1.536  43.857  0.00  0.00    +0.119 HD
ENDBRANCH  12  13
BRANCH  12  16
ATOM     16  C   TRP A   1     -12.357  -2.711  46.077  0.00  0.00    +0.322 C 
ATOM     17  O   TRP A   1     -12.713  -2.886  47.274  0.00  0.00    -0.249 OA
BRANCH  16  18
ATOM     18  OXT TRP A   1     -13.010  -3.392  45.054  0.00  0.00    -0.479 OA
ATOM     19  HXT TRP A   1     -13.286  -2.913  44.205  0.00  0.00    +0.295 HD
ENDBRANCH  16  18
ENDBRANCH  12  16
ENDBRANCH  11  12
ENDBRANCH   1  11
TORSDOF 5
ENDMDL
MODEL 7
REMARK VINA RESULT:      -5.1     34.456     35.636
REMARK  Name = peptide_19_NVGYDYRNSG
REMARK  5 active torsions:
REMARK  status: ('A' for Active; 'I' for Inactive)
REMARK    1  A    between atoms: N_1  and  CA_2
REMARK    2  A    between atoms: CA_2  and  CB_3
REMARK    3  A    between atoms: CA_2  and  C_13
REMARK    4  A    between atoms: CB_3  and  CG_4
REMARK    5  A    between atoms: C_13  and  OXT_15
REMARK                            x       y       z     vdW  Elec       q    Type
REMARK                         _______ _______ _______ _____ _____    ______ ____
ROOT
ATOM      1  CG  TRP A   1      12.274  -3.938  42.303  0.00  0.00    -0.020 A 
ATOM      2  CD1 TRP A   1      11.297  -2.996  41.994  0.00  0.00    +0.087 A 
ATOM      3  NE1 TRP A   1      10.063  -3.525  42.160  0.00  0.00    -0.360 N 
ATOM      4  CE2 TRP A   1      10.254  -4.795  42.558  0.00  0.00    +0.047 A 
ATOM      5  CZ2 TRP A   1       9.276  -5.749  42.838  0.00  0.00    +0.026 A 
ATOM      6  CH2 TRP A   1       9.701  -7.033  43.223  0.00  0.00    +0.002 A 
ATOM      7  CZ3 TRP A   1      11.079  -7.333  43.317  0.00  0.00    +0.001 A 
ATOM      8  CE3 TRP A   1      12.043  -6.351  43.027  0.00  0.00    +0.010 A 
ATOM      9  CD2 TRP A   1      11.590  -5.086  42.653  0.00  0.00    +0.003 A 
ATOM     10  HE1 TRP A   1       9.151  -3.046  41.995  0.00  0.00    +0.165 HD
ENDROOT
BRANCH   1  11
ATOM     11  CB  TRP A   1      13.761  -3.761  42.175  0.00  0.00    +0.067 C 
BRANCH  11  12
ATOM     12  CA  TRP A   1      14.314  -2.812  43.258  0.00  0.00    +0.165 C 
BRANCH  12  13
ATOM     13  N   TRP A   1      15.170  -1.782  42.665  0.00  0.00    -0.318 NA
ATOM     14  H1  TRP A   1      14.572  -0.967  42.396  0.00  0.00    +0.119 HD
ATOM     15  H2  TRP A   1      15.603  -2.150  41.786  0.00  0.00    +0.119 HD
ENDBRANCH  12  13
BRANCH  12  16
ATOM     16  C   TRP A   1      15.085  -3.569  44.303  0.00  0.00    +0.322 C 
ATOM     17  O   TRP A   1      15.024  -4.827  44.356  0.00  0.00    -0.249 OA
BRANCH  16  18
ATOM     18  OXT TRP A   1      15.847  -2.874  45.238  0.00  0.00    -0.479 OA
ATOM     19  HXT TRP A   1      15.937  -3.211  46.190  0.00  0.00    +0.295 HD
ENDBRANCH  16  18
ENDBRANCH  12  16
ENDBRANCH  11  12
ENDBRANCH   1  11
TORSDOF 5
ENDMDL
MODEL 8
REMARK VINA RESULT:      -5.1     21.398     22.912
REMARK  Name = peptide_19_NVGYDYRNSG
REMARK  5 active torsions:
REMARK  status: ('A' for Active; 'I' for Inactive)
REMARK    1  A    between atoms: N_1  and  CA_2
REMARK    2  A    between atoms: CA_2  and  CB_3
REMARK    3  A    between atoms: CA_2  and  C_13
REMARK    4  A    between atoms: CB_3  and  CG_4
REMARK    5  A    between atoms: C_13  and  OXT_15
REMARK                            x       y       z     vdW  Elec       q    Type
REMARK                         _______ _______ _______ _____ _____    ______ ____
ROOT
ATOM      1  CG  TRP A   1       4.536  -1.948  24.837  0.00  0.00    -0.020 A 
ATOM      2  CD1 TRP A   1       5.613  -1.093  24.618  0.00  0.00    +0.087 A 
ATOM      3  NE1 TRP A   1       5.188   0.071  24.075  0.00  0.00    -0.360 N 
ATOM      4  CE2 TRP A   1       3.855  -0.048  23.939  0.00  0.00    +0.047 A 
ATOM      5  CZ2 TRP A   1       2.974   0.891  23.406  0.00  0.00    +0.026 A 
ATOM      6  CH2 TRP A   1       1.610   0.551  23.340  0.00  0.00    +0.002 A 
ATOM      7  CZ3 TRP A   1       1.164  -0.708  23.801  0.00  0.00    +0.001 A 
ATOM      8  CE3 TRP A   1       2.077  -1.636  24.332  0.00  0.00    +0.010 A 
ATOM      9  CD2 TRP A   1       3.421  -1.267  24.389  0.00  0.00    +0.003 A 
ATOM     10  HE1 TRP A   1       5.780   0.886  23.803  0.00  0.00    +0.165 HD
ENDROOT
BRANCH   1  11
ATOM     11  CB  TRP A   1       4.602  -3.356  25.358  0.00  0.00    +0.067 C 
BRANCH  11  12
ATOM     12  CA  TRP A   1       5.893  -3.603  26.164  0.00  0.00    +0.165 C 
BRANCH  12  13
ATOM     13  N   TRP A   1       6.418  -4.947  25.914  0.00  0.00    -0.318 NA
ATOM     14  H1  TRP A   1       7.336  -5.043  26.407  0.00  0.00    +0.119 HD
ATOM     15  H2  TRP A   1       6.603  -5.066  24.891  0.00  0.00    +0.119 HD
ENDBRANCH  12  13
BRANCH  12  16
ATOM     16  C   TRP A   1       5.659  -3.418  27.637  0.00  0.00    +0.322 C 
ATOM     17  O   TRP A   1       5.503  -4.417  28.390  0.00  0.00    -0.249 OA
BRANCH  16  18
ATOM     18  OXT TRP A   1       5.583  -2.133  28.169  0.00  0.00    -0.479 OA
ATOM     19  HXT TRP A   1       4.688  -1.676  28.297  0.00  0.00    +0.295 HD
ENDBRANCH  16  18
ENDBRANCH  12  16
ENDBRANCH  11  12
ENDBRANCH   1  11
TORSDOF 5
ENDMDL
MODEL 9
REMARK VINA RESULT:      -5.1      2.428      3.330
REMARK  Name = peptide_19_NVGYDYRNSG
REMARK  5 active torsions:
REMARK  status: ('A' for Active; 'I' for Inactive)
REMARK    1  A    between atoms: N_1  and  CA_2
REMARK    2  A    between atoms: CA_2  and  CB_3
REMARK    3  A    between atoms: CA_2  and  C_13
REMARK    4  A    between atoms: CB_3  and  CG_4
REMARK    5  A    between atoms: C_13  and  OXT_15
REMARK                            x       y       z     vdW  Elec       q    Type
REMARK                         _______ _______ _______ _____ _____    ______ ____
ROOT
ATOM      1  CG  TRP A   1      20.301   7.562   8.954  0.00  0.00    -0.020 A 
ATOM      2  CD1 TRP A   1      20.777   8.730   8.366  0.00  0.00    +0.087 A 
ATOM      3  NE1 TRP A   1      22.070   8.581   7.999  0.00  0.00    -0.360 N 
ATOM      4  CE2 TRP A   1      22.418   7.334   8.362  0.00  0.00    +0.047 A 
ATOM      5  CZ2 TRP A   1      23.662   6.725   8.208  0.00  0.00    +0.026 A 
ATOM      6  CH2 TRP A   1      23.814   5.408   8.681  0.00  0.00    +0.002 A 
ATOM      7  CZ3 TRP A   1      22.730   4.739   9.293  0.00  0.00    +0.001 A 
ATOM      8  CE3 TRP A   1      21.486   5.379   9.436  0.00  0.00    +0.010 A 
ATOM      9  CD2 TRP A   1      21.366   6.682   8.953  0.00  0.00    +0.003 A 
ATOM     10  HE1 TRP A   1      22.677   9.297   7.542  0.00  0.00    +0.165 HD
ENDROOT
BRANCH   1  11
ATOM     11  CB  TRP A   1      18.941   7.352   9.557  0.00  0.00    +0.067 C 
BRANCH  11  12
ATOM     12  CA  TRP A   1      18.060   6.450   8.668  0.00  0.00    +0.165 C 
BRANCH  12  13
ATOM     13  N   TRP A   1      16.828   7.140   8.281  0.00  0.00    -0.318 NA
ATOM     14  H1  TRP A   1      16.200   7.194   9.116  0.00  0.00    +0.119 HD
ATOM     15  H2  TRP A   1      16.326   6.579   7.554  0.00  0.00    +0.119 HD
ENDBRANCH  12  13
BRANCH  12  16
ATOM     16  C   TRP A   1      17.720   5.162   9.366  0.00  0.00    +0.322 C 
ATOM     17  O   TRP A   1      17.861   5.056  10.614  0.00  0.00    -0.249 OA
BRANCH  16  18
ATOM     18  OXT TRP A   1      17.277   4.071   8.624  0.00  0.00    -0.479 OA
ATOM     19  HXT TRP A   1      17.866   3.653   7.912  0.00  0.00    +0.295 HD
ENDBRANCH  16  18
ENDBRANCH  12  16
ENDBRANCH  11  12
ENDBRANCH   1  11
TORSDOF 5
ENDMDL
