MODEL 1
REMARK VINA RESULT:      -6.2      0.000      0.000
REMARK  Name = peptide_4_KLYFRDWWHD
REMARK  5 active torsions:
REMARK  status: ('A' for Active; 'I' for Inactive)
REMARK    1  A    between atoms: N_1  and  CA_2
REMARK    2  A    between atoms: CA_2  and  CB_3
REMARK    3  A    between atoms: CA_2  and  C_13
REMARK    4  A    between atoms: CB_3  and  CG_4
REMARK    5  A    between atoms: C_13  and  OXT_15
REMARK                            x       y       z     vdW  Elec       q    Type
REMARK                         _______ _______ _______ _____ _____    ______ ____
ROOT
ATOM      1  CG  TRP A   1      18.350   5.313   9.124  0.00  0.00    -0.020 A 
ATOM      2  CD1 TRP A   1      18.138   3.937   9.111  0.00  0.00    +0.087 A 
ATOM      3  NE1 TRP A   1      19.319   3.278   9.150  0.00  0.00    -0.360 N 
ATOM      4  CE2 TRP A   1      20.273   4.226   9.174  0.00  0.00    +0.047 A 
ATOM      5  CZ2 TRP A   1      21.653   4.035   9.198  0.00  0.00    +0.026 A 
ATOM      6  CH2 TRP A   1      22.476   5.177   9.201  0.00  0.00    +0.002 A 
ATOM      7  CZ3 TRP A   1      21.905   6.469   9.177  0.00  0.00    +0.001 A 
ATOM      8  CE3 TRP A   1      20.509   6.631   9.151  0.00  0.00    +0.010 A 
ATOM      9  CD2 TRP A   1      19.720   5.481   9.155  0.00  0.00    +0.003 A 
ATOM     10  HE1 TRP A   1      19.458   2.243   9.145  0.00  0.00    +0.165 HD
ENDROOT
BRANCH   1  11
ATOM     11  CB  TRP A   1      17.299   6.381   9.018  0.00  0.00    +0.067 C 
BRANCH  11  12
ATOM     12  CA  TRP A   1      16.185   6.187  10.067  0.00  0.00    +0.165 C 
BRANCH  12  13
ATOM     13  N   TRP A   1      14.991   6.957   9.713  0.00  0.00    -0.318 NA
ATOM     14  H1  TRP A   1      14.858   7.712  10.425  0.00  0.00    +0.119 HD
ATOM     15  H2  TRP A   1      14.148   6.338   9.758  0.00  0.00    +0.119 HD
ENDBRANCH  12  13
BRANCH  12  16
ATOM     16  C   TRP A   1      16.654   6.584  11.439  0.00  0.00    +0.322 C 
ATOM     17  O   TRP A   1      17.349   7.623  11.600  0.00  0.00    -0.249 OA
BRANCH  16  18
ATOM     18  OXT TRP A   1      16.344   5.782  12.534  0.00  0.00    -0.479 OA
ATOM     19  HXT TRP A   1      16.038   6.192  13.408  0.00  0.00    +0.295 HD
ENDBRANCH  16  18
ENDBRANCH  12  16
ENDBRANCH  11  12
ENDBRANCH   1  11
TORSDOF 5
ENDMDL
MODEL 2
REMARK VINA RESULT:      -5.6      3.892      5.547
REMARK  Name = peptide_4_KLYFRDWWHD
REMARK  5 active torsions:
REMARK  status: ('A' for Active; 'I' for Inactive)
REMARK    1  A    between atoms: N_1  and  CA_2
REMARK    2  A    between atoms: CA_2  and  CB_3
REMARK    3  A    between atoms: CA_2  and  C_13
REMARK    4  A    between atoms: CB_3  and  CG_4
REMARK    5  A    between atoms: C_13  and  OXT_15
REMARK                            x       y       z     vdW  Elec       q    Type
REMARK                         _______ _______ _______ _____ _____    ______ ____
ROOT
ATOM      1  CG  TRP A   1      21.431   5.509   8.652  0.00  0.00    -0.020 A 
ATOM      2  CD1 TRP A   1      21.749   4.157   8.740  0.00  0.00    +0.087 A 
ATOM      3  NE1 TRP A   1      20.649   3.433   9.049  0.00  0.00    -0.360 N 
ATOM      4  CE2 TRP A   1      19.643   4.318   9.168  0.00  0.00    +0.047 A 
ATOM      5  CZ2 TRP A   1      18.315   4.050   9.496  0.00  0.00    +0.026 A 
ATOM      6  CH2 TRP A   1      17.427   5.137   9.586  0.00  0.00    +0.002 A 
ATOM      7  CZ3 TRP A   1      17.881   6.453   9.352  0.00  0.00    +0.001 A 
ATOM      8  CE3 TRP A   1      19.227   6.695   9.024  0.00  0.00    +0.010 A 
ATOM      9  CD2 TRP A   1      20.083   5.596   8.937  0.00  0.00    +0.003 A 
ATOM     10  HE1 TRP A   1      20.598   2.399   9.183  0.00  0.00    +0.165 HD
ENDROOT
BRANCH   1  11
ATOM     11  CB  TRP A   1      22.389   6.640   8.401  0.00  0.00    +0.067 C 
BRANCH  11  12
ATOM     12  CA  TRP A   1      23.399   6.795   9.555  0.00  0.00    +0.165 C 
BRANCH  12  13
ATOM     13  N   TRP A   1      22.855   7.643  10.618  0.00  0.00    -0.318 NA
ATOM     14  H1  TRP A   1      21.879   7.918  10.357  0.00  0.00    +0.119 HD
ATOM     15  H2  TRP A   1      23.417   8.523  10.685  0.00  0.00    +0.119 HD
ENDBRANCH  12  13
BRANCH  12  16
ATOM     16  C   TRP A   1      24.700   7.369   9.068  0.00  0.00    +0.322 C 
ATOM     17  O   TRP A   1      24.776   7.899   7.927  0.00  0.00    -0.249 OA
BRANCH  16  18
ATOM     18  OXT TRP A   1      25.835   7.285   9.869  0.00  0.00    -0.479 OA
ATOM     19  HXT TRP A   1      26.298   6.397  10.024  0.00  0.00    +0.295 HD
ENDBRANCH  16  18
ENDBRANCH  12  16
ENDBRANCH  11  12
ENDBRANCH   1  11
TORSDOF 5
ENDMDL
MODEL 3
REMARK VINA RESULT:      -5.3     18.024     19.087
REMARK  Name = peptide_4_KLYFRDWWHD
REMARK  5 active torsions:
REMARK  status: ('A' for Active; 'I' for Inactive)
REMARK    1  A    between atoms: N_1  and  CA_2
REMARK    2  A    between atoms: CA_2  and  CB_3
REMARK    3  A    between atoms: CA_2  and  C_13
REMARK    4  A    between atoms: CB_3  and  CG_4
REMARK    5  A    between atoms: C_13  and  OXT_15
REMARK                            x       y       z     vdW  Elec       q    Type
REMARK                         _______ _______ _______ _____ _____    ______ ____
ROOT
ATOM      1  CG  TRP A   1       8.536   8.026  25.215  0.00  0.00    -0.020 A 
ATOM      2  CD1 TRP A   1       9.872   8.161  24.852  0.00  0.00    +0.087 A 
ATOM      3  NE1 TRP A   1      10.579   7.074  25.238  0.00  0.00    -0.360 N 
ATOM      4  CE2 TRP A   1       9.702   6.260  25.851  0.00  0.00    +0.047 A 
ATOM      5  CZ2 TRP A   1       9.965   5.023  26.437  0.00  0.00    +0.026 A 
ATOM      6  CH2 TRP A   1       8.894   4.342  27.047  0.00  0.00    +0.002 A 
ATOM      7  CZ3 TRP A   1       7.601   4.910  27.060  0.00  0.00    +0.001 A 
ATOM      8  CE3 TRP A   1       7.366   6.161  26.463  0.00  0.00    +0.010 A 
ATOM      9  CD2 TRP A   1       8.445   6.808  25.862  0.00  0.00    +0.003 A 
ATOM     10  HE1 TRP A   1      11.600   6.911  25.099  0.00  0.00    +0.165 HD
ENDROOT
BRANCH   1  11
ATOM     11  CB  TRP A   1       7.449   9.046  25.029  0.00  0.00    +0.067 C 
BRANCH  11  12
ATOM     12  CA  TRP A   1       7.071   9.209  23.543  0.00  0.00    +0.165 C 
BRANCH  12  13
ATOM     13  N   TRP A   1       7.027  10.622  23.165  0.00  0.00    -0.318 NA
ATOM     14  H1  TRP A   1       7.564  10.746  22.275  0.00  0.00    +0.119 HD
ATOM     15  H2  TRP A   1       7.507  11.196  23.897  0.00  0.00    +0.119 HD
ENDBRANCH  12  13
BRANCH  12  16
ATOM     16  C   TRP A   1       5.745   8.565  23.244  0.00  0.00    +0.322 C 
ATOM     17  O   TRP A   1       4.774   9.260  22.843  0.00  0.00    -0.249 OA
BRANCH  16  18
ATOM     18  OXT TRP A   1       5.582   7.196  23.443  0.00  0.00    -0.479 OA
ATOM     19  HXT TRP A   1       4.658   6.793  23.542  0.00  0.00    +0.295 HD
ENDBRANCH  16  18
ENDBRANCH  12  16
ENDBRANCH  11  12
ENDBRANCH   1  11
TORSDOF 5
ENDMDL
MODEL 4
REMARK VINA RESULT:      -5.3      3.087      5.429
REMARK  Name = peptide_4_KLYFRDWWHD
REMARK  5 active torsions:
REMARK  status: ('A' for Active; 'I' for Inactive)
REMARK    1  A    between atoms: N_1  and  CA_2
REMARK    2  A    between atoms: CA_2  and  CB_3
REMARK    3  A    between atoms: CA_2  and  C_13
REMARK    4  A    between atoms: CB_3  and  CG_4
REMARK    5  A    between atoms: C_13  and  OXT_15
REMARK                            x       y       z     vdW  Elec       q    Type
REMARK                         _______ _______ _______ _____ _____    ______ ____
ROOT
ATOM      1  CG  TRP A   1      19.857   7.338   9.552  0.00  0.00    -0.020 A 
ATOM      2  CD1 TRP A   1      19.648   8.544  10.214  0.00  0.00    +0.087 A 
ATOM      3  NE1 TRP A   1      18.368   8.630  10.646  0.00  0.00    -0.360 N 
ATOM      4  CE2 TRP A   1      17.767   7.494  10.251  0.00  0.00    +0.047 A 
ATOM      5  CZ2 TRP A   1      16.436   7.130  10.449  0.00  0.00    +0.026 A 
ATOM      6  CH2 TRP A   1      16.008   5.893   9.931  0.00  0.00    +0.002 A 
ATOM      7  CZ3 TRP A   1      16.909   5.060   9.232  0.00  0.00    +0.001 A 
ATOM      8  CE3 TRP A   1      18.246   5.454   9.046  0.00  0.00    +0.010 A 
ATOM      9  CD2 TRP A   1      18.642   6.682   9.576  0.00  0.00    +0.003 A 
ATOM     10  HE1 TRP A   1      17.936   9.425  11.166  0.00  0.00    +0.165 HD
ENDROOT
BRANCH   1  11
ATOM     11  CB  TRP A   1      21.120   6.901   8.866  0.00  0.00    +0.067 C 
BRANCH  11  12
ATOM     12  CA  TRP A   1      21.916   5.900   9.728  0.00  0.00    +0.165 C 
BRANCH  12  13
ATOM     13  N   TRP A   1      23.309   6.326   9.875  0.00  0.00    -0.318 NA
ATOM     14  H1  TRP A   1      23.922   5.479   9.844  0.00  0.00    +0.119 HD
ATOM     15  H2  TRP A   1      23.442   6.770  10.813  0.00  0.00    +0.119 HD
ENDBRANCH  12  13
BRANCH  12  16
ATOM     16  C   TRP A   1      21.871   4.517   9.138  0.00  0.00    +0.322 C 
ATOM     17  O   TRP A   1      21.303   4.314   8.031  0.00  0.00    -0.249 OA
BRANCH  16  18
ATOM     18  OXT TRP A   1      22.432   3.451   9.835  0.00  0.00    -0.479 OA
ATOM     19  HXT TRP A   1      21.868   2.654  10.108  0.00  0.00    +0.295 HD
ENDBRANCH  16  18
ENDBRANCH  12  16
ENDBRANCH  11  12
ENDBRANCH   1  11
TORSDOF 5
ENDMDL
MODEL 5
REMARK VINA RESULT:      -5.2     18.540     20.020
REMARK  Name = peptide_4_KLYFRDWWHD
REMARK  5 active torsions:
REMARK  status: ('A' for Active; 'I' for Inactive)
REMARK    1  A    between atoms: N_1  and  CA_2
REMARK    2  A    between atoms: CA_2  and  CB_3
REMARK    3  A    between atoms: CA_2  and  C_13
REMARK    4  A    between atoms: CB_3  and  CG_4
REMARK    5  A    between atoms: C_13  and  OXT_15
REMARK                            x       y       z     vdW  Elec       q    Type
REMARK                         _______ _______ _______ _____ _____    ______ ____
ROOT
ATOM      1  CG  TRP A   1       8.392   8.013  25.230  0.00  0.00    -0.020 A 
ATOM      2  CD1 TRP A   1       9.734   8.277  24.978  0.00  0.00    +0.087 A 
ATOM      3  NE1 TRP A   1      10.509   7.268  25.439  0.00  0.00    -0.360 N 
ATOM      4  CE2 TRP A   1       9.666   6.376  25.990  0.00  0.00    +0.047 A 
ATOM      5  CZ2 TRP A   1       9.998   5.175  26.615  0.00  0.00    +0.026 A 
ATOM      6  CH2 TRP A   1       8.952   4.397  27.144  0.00  0.00    +0.002 A 
ATOM      7  CZ3 TRP A   1       7.613   4.834  27.039  0.00  0.00    +0.001 A 
ATOM      8  CE3 TRP A   1       7.308   6.052  26.405  0.00  0.00    +0.010 A 
ATOM      9  CD2 TRP A   1       8.366   6.798  25.886  0.00  0.00    +0.003 A 
ATOM     10  HE1 TRP A   1      11.549   7.206  25.389  0.00  0.00    +0.165 HD
ENDROOT
BRANCH   1  11
ATOM     11  CB  TRP A   1       7.230   8.920  24.938  0.00  0.00    +0.067 C 
BRANCH  11  12
ATOM     12  CA  TRP A   1       6.854   9.775  26.166  0.00  0.00    +0.165 C 
BRANCH  12  13
ATOM     13  N   TRP A   1       7.968   9.847  27.114  0.00  0.00    -0.318 NA
ATOM     14  H1  TRP A   1       8.625  10.599  26.799  0.00  0.00    +0.119 HD
ATOM     15  H2  TRP A   1       8.500   8.946  27.099  0.00  0.00    +0.119 HD
ENDBRANCH  12  13
BRANCH  12  16
ATOM     16  C   TRP A   1       5.636   9.228  26.858  0.00  0.00    +0.322 C 
ATOM     17  O   TRP A   1       5.484   9.384  28.099  0.00  0.00    -0.249 OA
BRANCH  16  18
ATOM     18  OXT TRP A   1       4.686   8.520  26.127  0.00  0.00    -0.479 OA
ATOM     19  HXT TRP A   1       4.713   8.509  25.114  0.00  0.00    +0.295 HD
ENDBRANCH  16  18
ENDBRANCH  12  16
ENDBRANCH  11  12
ENDBRANCH   1  11
TORSDOF 5
ENDMDL
MODEL 6
REMARK VINA RESULT:      -5.2     21.593     23.041
REMARK  Name = peptide_4_KLYFRDWWHD
REMARK  5 active torsions:
REMARK  status: ('A' for Active; 'I' for Inactive)
REMARK    1  A    between atoms: N_1  and  CA_2
REMARK    2  A    between atoms: CA_2  and  CB_3
REMARK    3  A    between atoms: CA_2  and  C_13
REMARK    4  A    between atoms: CB_3  and  CG_4
REMARK    5  A    between atoms: C_13  and  OXT_15
REMARK                            x       y       z     vdW  Elec       q    Type
REMARK                         _______ _______ _______ _____ _____    ______ ____
ROOT
ATOM      1  CG  TRP A   1       2.602  -0.185  24.209  0.00  0.00    -0.020 A 
ATOM      2  CD1 TRP A   1       3.640   0.739  24.141  0.00  0.00    +0.087 A 
ATOM      3  NE1 TRP A   1       4.836   0.112  24.230  0.00  0.00    -0.360 N 
ATOM      4  CE2 TRP A   1       4.559  -1.197  24.365  0.00  0.00    +0.047 A 
ATOM      5  CZ2 TRP A   1       5.470  -2.242  24.512  0.00  0.00    +0.026 A 
ATOM      6  CH2 TRP A   1       4.959  -3.545  24.660  0.00  0.00    +0.002 A 
ATOM      7  CZ3 TRP A   1       3.564  -3.770  24.659  0.00  0.00    +0.001 A 
ATOM      8  CE3 TRP A   1       2.669  -2.696  24.511  0.00  0.00    +0.010 A 
ATOM      9  CD2 TRP A   1       3.206  -1.417  24.362  0.00  0.00    +0.003 A 
ATOM     10  HE1 TRP A   1       5.779   0.559  24.212  0.00  0.00    +0.165 HD
ENDROOT
BRANCH   1  11
ATOM     11  CB  TRP A   1       1.130   0.121  24.219  0.00  0.00    +0.067 C 
BRANCH  11  12
ATOM     12  CA  TRP A   1       0.755   1.067  25.377  0.00  0.00    +0.165 C 
BRANCH  12  13
ATOM     13  N   TRP A   1       0.135   0.328  26.479  0.00  0.00    -0.318 NA
ATOM     14  H1  TRP A   1      -0.628  -0.273  26.089  0.00  0.00    +0.119 HD
ATOM     15  H2  TRP A   1      -0.311   1.001  27.145  0.00  0.00    +0.119 HD
ENDBRANCH  12  13
BRANCH  12  16
ATOM     16  C   TRP A   1      -0.173   2.155  24.913  0.00  0.00    +0.322 C 
ATOM     17  O   TRP A   1      -1.345   2.232  25.371  0.00  0.00    -0.249 OA
BRANCH  16  18
ATOM     18  OXT TRP A   1       0.255   3.064  23.949  0.00  0.00    -0.479 OA
ATOM     19  HXT TRP A   1      -0.406   3.670  23.477  0.00  0.00    +0.295 HD
ENDBRANCH  16  18
ENDBRANCH  12  16
ENDBRANCH  11  12
ENDBRANCH   1  11
TORSDOF 5
ENDMDL
MODEL 7
REMARK VINA RESULT:      -5.1      2.061      2.666
REMARK  Name = peptide_4_KLYFRDWWHD
REMARK  5 active torsions:
REMARK  status: ('A' for Active; 'I' for Inactive)
REMARK    1  A    between atoms: N_1  and  CA_2
REMARK    2  A    between atoms: CA_2  and  CB_3
REMARK    3  A    between atoms: CA_2  and  C_13
REMARK    4  A    between atoms: CB_3  and  CG_4
REMARK    5  A    between atoms: C_13  and  OXT_15
REMARK                            x       y       z     vdW  Elec       q    Type
REMARK                         _______ _______ _______ _____ _____    ______ ____
ROOT
ATOM      1  CG  TRP A   1      18.432   6.706   9.941  0.00  0.00    -0.020 A 
ATOM      2  CD1 TRP A   1      18.852   8.029   9.837  0.00  0.00    +0.087 A 
ATOM      3  NE1 TRP A   1      20.119   8.087   9.366  0.00  0.00    -0.360 N 
ATOM      4  CE2 TRP A   1      20.505   6.812   9.185  0.00  0.00    +0.047 A 
ATOM      5  CZ2 TRP A   1      21.744   6.361   8.730  0.00  0.00    +0.026 A 
ATOM      6  CH2 TRP A   1      21.943   4.971   8.632  0.00  0.00    +0.002 A 
ATOM      7  CZ3 TRP A   1      20.913   4.074   8.991  0.00  0.00    +0.001 A 
ATOM      8  CE3 TRP A   1      19.674   4.558   9.449  0.00  0.00    +0.010 A 
ATOM      9  CD2 TRP A   1      19.505   5.940   9.529  0.00  0.00    +0.003 A 
ATOM     10  HE1 TRP A   1      20.684   8.948   9.195  0.00  0.00    +0.165 HD
ENDROOT
BRANCH   1  11
ATOM     11  CB  TRP A   1      17.119   6.223  10.490  0.00  0.00    +0.067 C 
BRANCH  11  12
ATOM     12  CA  TRP A   1      16.810   6.857  11.861  0.00  0.00    +0.165 C 
BRANCH  12  13
ATOM     13  N   TRP A   1      16.475   5.831  12.850  0.00  0.00    -0.318 NA
ATOM     14  H1  TRP A   1      16.903   4.925  12.547  0.00  0.00    +0.119 HD
ATOM     15  H2  TRP A   1      15.438   5.690  12.872  0.00  0.00    +0.119 HD
ENDBRANCH  12  13
BRANCH  12  16
ATOM     16  C   TRP A   1      15.684   7.849  11.761  0.00  0.00    +0.322 C 
ATOM     17  O   TRP A   1      15.129   8.074  10.652  0.00  0.00    -0.249 OA
BRANCH  16  18
ATOM     18  OXT TRP A   1      15.273   8.544  12.895  0.00  0.00    -0.479 OA
ATOM     19  HXT TRP A   1      15.165   8.070  13.784  0.00  0.00    +0.295 HD
ENDBRANCH  16  18
ENDBRANCH  12  16
ENDBRANCH  11  12
ENDBRANCH   1  11
TORSDOF 5
ENDMDL
MODEL 8
REMARK VINA RESULT:      -5.1     21.573     22.872
REMARK  Name = peptide_4_KLYFRDWWHD
REMARK  5 active torsions:
REMARK  status: ('A' for Active; 'I' for Inactive)
REMARK    1  A    between atoms: N_1  and  CA_2
REMARK    2  A    between atoms: CA_2  and  CB_3
REMARK    3  A    between atoms: CA_2  and  C_13
REMARK    4  A    between atoms: CB_3  and  CG_4
REMARK    5  A    between atoms: C_13  and  OXT_15
REMARK                            x       y       z     vdW  Elec       q    Type
REMARK                         _______ _______ _______ _____ _____    ______ ____
ROOT
ATOM      1  CG  TRP A   1       4.614  -2.038  24.510  0.00  0.00    -0.020 A 
ATOM      2  CD1 TRP A   1       5.608  -1.081  24.688  0.00  0.00    +0.087 A 
ATOM      3  NE1 TRP A   1       5.125   0.156  24.427  0.00  0.00    -0.360 N 
ATOM      4  CE2 TRP A   1       3.839  -0.016  24.074  0.00  0.00    +0.047 A 
ATOM      5  CZ2 TRP A   1       2.928   0.970  23.696  0.00  0.00    +0.026 A 
ATOM      6  CH2 TRP A   1       1.627   0.563  23.345  0.00  0.00    +0.002 A 
ATOM      7  CZ3 TRP A   1       1.272  -0.803  23.377  0.00  0.00    +0.001 A 
ATOM      8  CE3 TRP A   1       2.212  -1.776  23.762  0.00  0.00    +0.010 A 
ATOM      9  CD2 TRP A   1       3.491  -1.341  24.109  0.00  0.00    +0.003 A 
ATOM     10  HE1 TRP A   1       5.651   1.056  24.475  0.00  0.00    +0.165 HD
ENDROOT
BRANCH   1  11
ATOM     11  CB  TRP A   1       4.773  -3.527  24.632  0.00  0.00    +0.067 C 
BRANCH  11  12
ATOM     12  CA  TRP A   1       5.793  -3.902  25.726  0.00  0.00    +0.165 C 
BRANCH  12  13
ATOM     13  N   TRP A   1       6.605  -5.049  25.315  0.00  0.00    -0.318 NA
ATOM     14  H1  TRP A   1       6.076  -5.925  25.529  0.00  0.00    +0.119 HD
ATOM     15  H2  TRP A   1       7.486  -5.074  25.880  0.00  0.00    +0.119 HD
ENDBRANCH  12  13
BRANCH  12  16
ATOM     16  C   TRP A   1       5.107  -4.209  27.028  0.00  0.00    +0.322 C 
ATOM     17  O   TRP A   1       4.950  -5.403  27.400  0.00  0.00    -0.249 OA
BRANCH  16  18
ATOM     18  OXT TRP A   1       4.615  -3.170  27.812  0.00  0.00    -0.479 OA
ATOM     19  HXT TRP A   1       3.626  -3.101  28.023  0.00  0.00    +0.295 HD
ENDBRANCH  16  18
ENDBRANCH  12  16
ENDBRANCH  11  12
ENDBRANCH   1  11
TORSDOF 5
ENDMDL
MODEL 9
REMARK VINA RESULT:      -4.9     34.721     36.366
REMARK  Name = peptide_4_KLYFRDWWHD
REMARK  5 active torsions:
REMARK  status: ('A' for Active; 'I' for Inactive)
REMARK    1  A    between atoms: N_1  and  CA_2
REMARK    2  A    between atoms: CA_2  and  CB_3
REMARK    3  A    between atoms: CA_2  and  C_13
REMARK    4  A    between atoms: CB_3  and  CG_4
REMARK    5  A    between atoms: C_13  and  OXT_15
REMARK                            x       y       z     vdW  Elec       q    Type
REMARK                         _______ _______ _______ _____ _____    ______ ____
ROOT
ATOM      1  CG  TRP A   1       9.827  -5.639  43.398  0.00  0.00    -0.020 A 
ATOM      2  CD1 TRP A   1       9.126  -4.489  43.049  0.00  0.00    +0.087 A 
ATOM      3  NE1 TRP A   1       9.919  -3.646  42.348  0.00  0.00    -0.360 N 
ATOM      4  CE2 TRP A   1      11.118  -4.250  42.263  0.00  0.00    +0.047 A 
ATOM      5  CZ2 TRP A   1      12.269  -3.760  41.648  0.00  0.00    +0.026 A 
ATOM      6  CH2 TRP A   1      13.429  -4.555  41.695  0.00  0.00    +0.002 A 
ATOM      7  CZ3 TRP A   1      13.413  -5.806  42.351  0.00  0.00    +0.001 A 
ATOM      8  CE3 TRP A   1      12.238  -6.274  42.964  0.00  0.00    +0.010 A 
ATOM      9  CD2 TRP A   1      11.103  -5.466  42.896  0.00  0.00    +0.003 A 
ATOM     10  HE1 TRP A   1       9.655  -2.712  41.966  0.00  0.00    +0.165 HD
ENDROOT
BRANCH   1  11
ATOM     11  CB  TRP A   1       9.321  -6.777  44.239  0.00  0.00    +0.067 C 
BRANCH  11  12
ATOM     12  CA  TRP A   1       8.122  -7.482  43.574  0.00  0.00    +0.165 C 
BRANCH  12  13
ATOM     13  N   TRP A   1       8.087  -7.213  42.135  0.00  0.00    -0.318 NA
ATOM     14  H1  TRP A   1       8.826  -6.507  41.910  0.00  0.00    +0.119 HD
ATOM     15  H2  TRP A   1       7.165  -6.786  41.881  0.00  0.00    +0.119 HD
ENDBRANCH  12  13
BRANCH  12  16
ATOM     16  C   TRP A   1       6.823  -7.056  44.200  0.00  0.00    +0.322 C 
ATOM     17  O   TRP A   1       5.727  -7.504  43.766  0.00  0.00    -0.249 OA
BRANCH  16  18
ATOM     18  OXT TRP A   1       6.829  -6.136  45.244  0.00  0.00    -0.479 OA
ATOM     19  HXT TRP A   1       7.227  -5.212  45.121  0.00  0.00    +0.295 HD
ENDBRANCH  16  18
ENDBRANCH  12  16
ENDBRANCH  11  12
ENDBRANCH   1  11
TORSDOF 5
ENDMDL
