MODEL 1
REMARK VINA RESULT:      -6.2      0.000      0.000
REMARK  Name = peptide_23_GSGWYPSWWW
REMARK  5 active torsions:
REMARK  status: ('A' for Active; 'I' for Inactive)
REMARK    1  A    between atoms: N_1  and  CA_2
REMARK    2  A    between atoms: CA_2  and  CB_3
REMARK    3  A    between atoms: CA_2  and  C_13
REMARK    4  A    between atoms: CB_3  and  CG_4
REMARK    5  A    between atoms: C_13  and  OXT_15
REMARK                            x       y       z     vdW  Elec       q    Type
REMARK                         _______ _______ _______ _____ _____    ______ ____
ROOT
ATOM      1  CG  TRP A   1      18.356   5.309   9.129  0.00  0.00    -0.020 A 
ATOM      2  CD1 TRP A   1      18.143   3.933   9.113  0.00  0.00    +0.087 A 
ATOM      3  NE1 TRP A   1      19.323   3.273   9.149  0.00  0.00    -0.360 N 
ATOM      4  CE2 TRP A   1      20.277   4.219   9.174  0.00  0.00    +0.047 A 
ATOM      5  CZ2 TRP A   1      21.658   4.027   9.196  0.00  0.00    +0.026 A 
ATOM      6  CH2 TRP A   1      22.482   5.167   9.201  0.00  0.00    +0.002 A 
ATOM      7  CZ3 TRP A   1      21.913   6.460   9.181  0.00  0.00    +0.001 A 
ATOM      8  CE3 TRP A   1      20.516   6.624   9.157  0.00  0.00    +0.010 A 
ATOM      9  CD2 TRP A   1      19.727   5.475   9.159  0.00  0.00    +0.003 A 
ATOM     10  HE1 TRP A   1      19.460   2.238   9.141  0.00  0.00    +0.165 HD
ENDROOT
BRANCH   1  11
ATOM     11  CB  TRP A   1      17.306   6.379   9.027  0.00  0.00    +0.067 C 
BRANCH  11  12
ATOM     12  CA  TRP A   1      16.189   6.179  10.071  0.00  0.00    +0.165 C 
BRANCH  12  13
ATOM     13  N   TRP A   1      14.990   6.937   9.709  0.00  0.00    -0.318 NA
ATOM     14  H1  TRP A   1      15.210   7.529   8.874  0.00  0.00    +0.119 HD
ATOM     15  H2  TRP A   1      14.737   7.586  10.490  0.00  0.00    +0.119 HD
ENDBRANCH  12  13
BRANCH  12  16
ATOM     16  C   TRP A   1      16.648   6.585  11.444  0.00  0.00    +0.322 C 
ATOM     17  O   TRP A   1      17.327   7.634  11.606  0.00  0.00    -0.249 OA
BRANCH  16  18
ATOM     18  OXT TRP A   1      16.346   5.780  12.539  0.00  0.00    -0.479 OA
ATOM     19  HXT TRP A   1      15.447   5.848  13.002  0.00  0.00    +0.295 HD
ENDBRANCH  16  18
ENDBRANCH  12  16
ENDBRANCH  11  12
ENDBRANCH   1  11
TORSDOF 5
ENDMDL
MODEL 2
REMARK VINA RESULT:      -5.6      3.604      5.414
REMARK  Name = peptide_23_GSGWYPSWWW
REMARK  5 active torsions:
REMARK  status: ('A' for Active; 'I' for Inactive)
REMARK    1  A    between atoms: N_1  and  CA_2
REMARK    2  A    between atoms: CA_2  and  CB_3
REMARK    3  A    between atoms: CA_2  and  C_13
REMARK    4  A    between atoms: CB_3  and  CG_4
REMARK    5  A    between atoms: C_13  and  OXT_15
REMARK                            x       y       z     vdW  Elec       q    Type
REMARK                         _______ _______ _______ _____ _____    ______ ____
ROOT
ATOM      1  CG  TRP A   1      20.803   5.665   8.829  0.00  0.00    -0.020 A 
ATOM      2  CD1 TRP A   1      21.086   4.304   8.882  0.00  0.00    +0.087 A 
ATOM      3  NE1 TRP A   1      19.950   3.592   9.066  0.00  0.00    -0.360 N 
ATOM      4  CE2 TRP A   1      18.956   4.494   9.142  0.00  0.00    +0.047 A 
ATOM      5  CZ2 TRP A   1      17.600   4.241   9.348  0.00  0.00    +0.026 A 
ATOM      6  CH2 TRP A   1      16.728   5.343   9.415  0.00  0.00    +0.002 A 
ATOM      7  CZ3 TRP A   1      17.226   6.658   9.278  0.00  0.00    +0.001 A 
ATOM      8  CE3 TRP A   1      18.599   6.883   9.073  0.00  0.00    +0.010 A 
ATOM      9  CD2 TRP A   1      19.437   5.771   9.007  0.00  0.00    +0.003 A 
ATOM     10  HE1 TRP A   1      19.869   2.555   9.148  0.00  0.00    +0.165 HD
ENDROOT
BRANCH   1  11
ATOM     11  CB  TRP A   1      21.799   6.784   8.709  0.00  0.00    +0.067 C 
BRANCH  11  12
ATOM     12  CA  TRP A   1      22.853   6.728   9.833  0.00  0.00    +0.165 C 
BRANCH  12  13
ATOM     13  N   TRP A   1      22.920   8.002  10.552  0.00  0.00    -0.318 NA
ATOM     14  H1  TRP A   1      22.365   8.713  10.022  0.00  0.00    +0.119 HD
ATOM     15  H2  TRP A   1      23.911   8.339  10.575  0.00  0.00    +0.119 HD
ENDBRANCH  12  13
BRANCH  12  16
ATOM     16  C   TRP A   1      24.211   6.382   9.290  0.00  0.00    +0.322 C 
ATOM     17  O   TRP A   1      24.366   5.369   8.555  0.00  0.00    -0.249 OA
BRANCH  16  18
ATOM     18  OXT TRP A   1      25.311   7.167   9.627  0.00  0.00    -0.479 OA
ATOM     19  HXT TRP A   1      26.188   7.074   9.128  0.00  0.00    +0.295 HD
ENDBRANCH  16  18
ENDBRANCH  12  16
ENDBRANCH  11  12
ENDBRANCH   1  11
TORSDOF 5
ENDMDL
MODEL 3
REMARK VINA RESULT:      -5.3     34.353     35.616
REMARK  Name = peptide_23_GSGWYPSWWW
REMARK  5 active torsions:
REMARK  status: ('A' for Active; 'I' for Inactive)
REMARK    1  A    between atoms: N_1  and  CA_2
REMARK    2  A    between atoms: CA_2  and  CB_3
REMARK    3  A    between atoms: CA_2  and  C_13
REMARK    4  A    between atoms: CB_3  and  CG_4
REMARK    5  A    between atoms: C_13  and  OXT_15
REMARK                            x       y       z     vdW  Elec       q    Type
REMARK                         _______ _______ _______ _____ _____    ______ ____
ROOT
ATOM      1  CG  TRP A   1      12.195  -4.003  42.261  0.00  0.00    -0.020 A 
ATOM      2  CD1 TRP A   1      11.200  -3.063  42.011  0.00  0.00    +0.087 A 
ATOM      3  NE1 TRP A   1       9.979  -3.596  42.242  0.00  0.00    -0.360 N 
ATOM      4  CE2 TRP A   1      10.195  -4.868  42.624  0.00  0.00    +0.047 A 
ATOM      5  CZ2 TRP A   1       9.237  -5.826  42.952  0.00  0.00    +0.026 A 
ATOM      6  CH2 TRP A   1       9.686  -7.111  43.308  0.00  0.00    +0.002 A 
ATOM      7  CZ3 TRP A   1      11.067  -7.406  43.323  0.00  0.00    +0.001 A 
ATOM      8  CE3 TRP A   1      12.011  -6.420  42.985  0.00  0.00    +0.010 A 
ATOM      9  CD2 TRP A   1      11.535  -5.155  42.643  0.00  0.00    +0.003 A 
ATOM     10  HE1 TRP A   1       9.057  -3.119  42.131  0.00  0.00    +0.165 HD
ENDROOT
BRANCH   1  11
ATOM     11  CB  TRP A   1      13.673  -3.821  42.053  0.00  0.00    +0.067 C 
BRANCH  11  12
ATOM     12  CA  TRP A   1      14.255  -2.768  43.016  0.00  0.00    +0.165 C 
BRANCH  12  13
ATOM     13  N   TRP A   1      15.219  -1.906  42.329  0.00  0.00    -0.318 NA
ATOM     14  H1  TRP A   1      15.263  -2.191  41.323  0.00  0.00    +0.119 HD
ATOM     15  H2  TRP A   1      16.173  -2.055  42.734  0.00  0.00    +0.119 HD
ENDBRANCH  12  13
BRANCH  12  16
ATOM     16  C   TRP A   1      14.914  -3.418  44.201  0.00  0.00    +0.322 C 
ATOM     17  O   TRP A   1      15.026  -4.672  44.260  0.00  0.00    -0.249 OA
BRANCH  16  18
ATOM     18  OXT TRP A   1      15.375  -2.631  45.253  0.00  0.00    -0.479 OA
ATOM     19  HXT TRP A   1      16.263  -2.147  45.188  0.00  0.00    +0.295 HD
ENDBRANCH  16  18
ENDBRANCH  12  16
ENDBRANCH  11  12
ENDBRANCH   1  11
TORSDOF 5
ENDMDL
MODEL 4
REMARK VINA RESULT:      -5.2      3.122      5.458
REMARK  Name = peptide_23_GSGWYPSWWW
REMARK  5 active torsions:
REMARK  status: ('A' for Active; 'I' for Inactive)
REMARK    1  A    between atoms: N_1  and  CA_2
REMARK    2  A    between atoms: CA_2  and  CB_3
REMARK    3  A    between atoms: CA_2  and  C_13
REMARK    4  A    between atoms: CB_3  and  CG_4
REMARK    5  A    between atoms: C_13  and  OXT_15
REMARK                            x       y       z     vdW  Elec       q    Type
REMARK                         _______ _______ _______ _____ _____    ______ ____
ROOT
ATOM      1  CG  TRP A   1      19.799   7.443   9.624  0.00  0.00    -0.020 A 
ATOM      2  CD1 TRP A   1      19.547   8.632  10.303  0.00  0.00    +0.087 A 
ATOM      3  NE1 TRP A   1      18.262   8.671  10.726  0.00  0.00    -0.360 N 
ATOM      4  CE2 TRP A   1      17.700   7.523  10.309  0.00  0.00    +0.047 A 
ATOM      5  CZ2 TRP A   1      16.379   7.114  10.491  0.00  0.00    +0.026 A 
ATOM      6  CH2 TRP A   1      15.994   5.873   9.952  0.00  0.00    +0.002 A 
ATOM      7  CZ3 TRP A   1      16.926   5.079   9.248  0.00  0.00    +0.001 A 
ATOM      8  CE3 TRP A   1      18.252   5.517   9.078  0.00  0.00    +0.010 A 
ATOM      9  CD2 TRP A   1      18.605   6.749   9.629  0.00  0.00    +0.003 A 
ATOM     10  HE1 TRP A   1      17.801   9.444  11.254  0.00  0.00    +0.165 HD
ENDROOT
BRANCH   1  11
ATOM     11  CB  TRP A   1      21.080   7.056   8.941  0.00  0.00    +0.067 C 
BRANCH  11  12
ATOM     12  CA  TRP A   1      21.898   6.063   9.792  0.00  0.00    +0.165 C 
BRANCH  12  13
ATOM     13  N   TRP A   1      23.250   6.570  10.034  0.00  0.00    -0.318 NA
ATOM     14  H1  TRP A   1      23.275   7.586   9.783  0.00  0.00    +0.119 HD
ATOM     15  H2  TRP A   1      23.926   6.079   9.403  0.00  0.00    +0.119 HD
ENDBRANCH  12  13
BRANCH  12  16
ATOM     16  C   TRP A   1      21.975   4.714   9.131  0.00  0.00    +0.322 C 
ATOM     17  O   TRP A   1      21.365   4.498   8.050  0.00  0.00    -0.249 OA
BRANCH  16  18
ATOM     18  OXT TRP A   1      22.699   3.690   9.734  0.00  0.00    -0.479 OA
ATOM     19  HXT TRP A   1      22.823   2.798   9.270  0.00  0.00    +0.295 HD
ENDBRANCH  16  18
ENDBRANCH  12  16
ENDBRANCH  11  12
ENDBRANCH   1  11
TORSDOF 5
ENDMDL
MODEL 5
REMARK VINA RESULT:      -5.2     18.559     20.012
REMARK  Name = peptide_23_GSGWYPSWWW
REMARK  5 active torsions:
REMARK  status: ('A' for Active; 'I' for Inactive)
REMARK    1  A    between atoms: N_1  and  CA_2
REMARK    2  A    between atoms: CA_2  and  CB_3
REMARK    3  A    between atoms: CA_2  and  C_13
REMARK    4  A    between atoms: CB_3  and  CG_4
REMARK    5  A    between atoms: C_13  and  OXT_15
REMARK                            x       y       z     vdW  Elec       q    Type
REMARK                         _______ _______ _______ _____ _____    ______ ____
ROOT
ATOM      1  CG  TRP A   1       8.428   8.067  25.244  0.00  0.00    -0.020 A 
ATOM      2  CD1 TRP A   1       9.775   8.337  25.025  0.00  0.00    +0.087 A 
ATOM      3  NE1 TRP A   1      10.542   7.324  25.488  0.00  0.00    -0.360 N 
ATOM      4  CE2 TRP A   1       9.690   6.423  26.009  0.00  0.00    +0.047 A 
ATOM      5  CZ2 TRP A   1      10.012   5.214  26.625  0.00  0.00    +0.026 A 
ATOM      6  CH2 TRP A   1       8.956   4.427  27.121  0.00  0.00    +0.002 A 
ATOM      7  CZ3 TRP A   1       7.618   4.862  26.993  0.00  0.00    +0.001 A 
ATOM      8  CE3 TRP A   1       7.324   6.088  26.369  0.00  0.00    +0.010 A 
ATOM      9  CD2 TRP A   1       8.391   6.843  25.883  0.00  0.00    +0.003 A 
ATOM     10  HE1 TRP A   1      11.584   7.264  25.460  0.00  0.00    +0.165 HD
ENDROOT
BRANCH   1  11
ATOM     11  CB  TRP A   1       7.271   8.975  24.939  0.00  0.00    +0.067 C 
BRANCH  11  12
ATOM     12  CA  TRP A   1       6.872   9.818  26.167  0.00  0.00    +0.165 C 
BRANCH  12  13
ATOM     13  N   TRP A   1       7.975   9.901  27.127  0.00  0.00    -0.318 NA
ATOM     14  H1  TRP A   1       8.521  10.772  26.932  0.00  0.00    +0.119 HD
ATOM     15  H2  TRP A   1       8.624   9.091  26.985  0.00  0.00    +0.119 HD
ENDBRANCH  12  13
BRANCH  12  16
ATOM     16  C   TRP A   1       5.655   9.253  26.845  0.00  0.00    +0.322 C 
ATOM     17  O   TRP A   1       5.492   9.393  28.087  0.00  0.00    -0.249 OA
BRANCH  16  18
ATOM     18  OXT TRP A   1       4.717   8.543  26.100  0.00  0.00    -0.479 OA
ATOM     19  HXT TRP A   1       3.810   8.943  25.890  0.00  0.00    +0.295 HD
ENDBRANCH  16  18
ENDBRANCH  12  16
ENDBRANCH  11  12
ENDBRANCH   1  11
TORSDOF 5
ENDMDL
MODEL 6
REMARK VINA RESULT:      -5.0     32.855     34.637
REMARK  Name = peptide_23_GSGWYPSWWW
REMARK  5 active torsions:
REMARK  status: ('A' for Active; 'I' for Inactive)
REMARK    1  A    between atoms: N_1  and  CA_2
REMARK    2  A    between atoms: CA_2  and  CB_3
REMARK    3  A    between atoms: CA_2  and  C_13
REMARK    4  A    between atoms: CB_3  and  CG_4
REMARK    5  A    between atoms: C_13  and  OXT_15
REMARK                            x       y       z     vdW  Elec       q    Type
REMARK                         _______ _______ _______ _____ _____    ______ ____
ROOT
ATOM      1  CG  TRP A   1      12.314  -3.978  42.383  0.00  0.00    -0.020 A 
ATOM      2  CD1 TRP A   1      11.361  -3.019  42.055  0.00  0.00    +0.087 A 
ATOM      3  NE1 TRP A   1      10.116  -3.537  42.158  0.00  0.00    -0.360 N 
ATOM      4  CE2 TRP A   1      10.276  -4.818  42.536  0.00  0.00    +0.047 A 
ATOM      5  CZ2 TRP A   1       9.278  -5.766  42.753  0.00  0.00    +0.026 A 
ATOM      6  CH2 TRP A   1       9.673  -7.064  43.128  0.00  0.00    +0.002 A 
ATOM      7  CZ3 TRP A   1      11.042  -7.381  43.272  0.00  0.00    +0.001 A 
ATOM      8  CE3 TRP A   1      12.028  -6.404  43.044  0.00  0.00    +0.010 A 
ATOM      9  CD2 TRP A   1      11.605  -5.126  42.679  0.00  0.00    +0.003 A 
ATOM     10  HE1 TRP A   1       9.216  -3.044  41.966  0.00  0.00    +0.165 HD
ENDROOT
BRANCH   1  11
ATOM     11  CB  TRP A   1      13.807  -3.815  42.322  0.00  0.00    +0.067 C 
BRANCH  11  12
ATOM     12  CA  TRP A   1      14.319  -3.826  40.868  0.00  0.00    +0.165 C 
BRANCH  12  13
ATOM     13  N   TRP A   1      15.285  -4.907  40.660  0.00  0.00    -0.318 NA
ATOM     14  H1  TRP A   1      14.929  -5.768  41.137  0.00  0.00    +0.119 HD
ATOM     15  H2  TRP A   1      16.194  -4.657  41.112  0.00  0.00    +0.119 HD
ENDBRANCH  12  13
BRANCH  12  16
ATOM     16  C   TRP A   1      14.948  -2.510  40.502  0.00  0.00    +0.322 C 
ATOM     17  O   TRP A   1      15.179  -2.227  39.296  0.00  0.00    -0.249 OA
BRANCH  16  18
ATOM     18  OXT TRP A   1      15.306  -1.613  41.504  0.00  0.00    -0.479 OA
ATOM     19  HXT TRP A   1      14.612  -1.014  41.937  0.00  0.00    +0.295 HD
ENDBRANCH  16  18
ENDBRANCH  12  16
ENDBRANCH  11  12
ENDBRANCH   1  11
TORSDOF 5
ENDMDL
MODEL 7
REMARK VINA RESULT:      -5.0     21.580     23.041
REMARK  Name = peptide_23_GSGWYPSWWW
REMARK  5 active torsions:
REMARK  status: ('A' for Active; 'I' for Inactive)
REMARK    1  A    between atoms: N_1  and  CA_2
REMARK    2  A    between atoms: CA_2  and  CB_3
REMARK    3  A    between atoms: CA_2  and  C_13
REMARK    4  A    between atoms: CB_3  and  CG_4
REMARK    5  A    between atoms: C_13  and  OXT_15
REMARK                            x       y       z     vdW  Elec       q    Type
REMARK                         _______ _______ _______ _____ _____    ______ ____
ROOT
ATOM      1  CG  TRP A   1       4.557  -2.004  24.708  0.00  0.00    -0.020 A 
ATOM      2  CD1 TRP A   1       5.627  -1.122  24.592  0.00  0.00    +0.087 A 
ATOM      3  NE1 TRP A   1       5.197   0.090  24.172  0.00  0.00    -0.360 N 
ATOM      4  CE2 TRP A   1       3.867  -0.025  24.010  0.00  0.00    +0.047 A 
ATOM      5  CZ2 TRP A   1       2.981   0.958  23.570  0.00  0.00    +0.026 A 
ATOM      6  CH2 TRP A   1       1.621   0.614  23.454  0.00  0.00    +0.002 A 
ATOM      7  CZ3 TRP A   1       1.184  -0.690  23.774  0.00  0.00    +0.001 A 
ATOM      8  CE3 TRP A   1       2.100  -1.662  24.213  0.00  0.00    +0.010 A 
ATOM      9  CD2 TRP A   1       3.440  -1.290  24.323  0.00  0.00    +0.003 A 
ATOM     10  HE1 TRP A   1       5.783   0.935  23.995  0.00  0.00    +0.165 HD
ENDROOT
BRANCH   1  11
ATOM     11  CB  TRP A   1       4.632  -3.459  25.076  0.00  0.00    +0.067 C 
BRANCH  11  12
ATOM     12  CA  TRP A   1       5.620  -3.701  26.235  0.00  0.00    +0.165 C 
BRANCH  12  13
ATOM     13  N   TRP A   1       6.476  -4.857  25.961  0.00  0.00    -0.318 NA
ATOM     14  H1  TRP A   1       7.398  -4.512  25.604  0.00  0.00    +0.119 HD
ATOM     15  H2  TRP A   1       6.049  -5.437  25.202  0.00  0.00    +0.119 HD
ENDBRANCH  12  13
BRANCH  12  16
ATOM     16  C   TRP A   1       4.894  -3.908  27.536  0.00  0.00    +0.322 C 
ATOM     17  O   TRP A   1       5.448  -4.524  28.485  0.00  0.00    -0.249 OA
BRANCH  16  18
ATOM     18  OXT TRP A   1       3.591  -3.441  27.681  0.00  0.00    -0.479 OA
ATOM     19  HXT TRP A   1       3.151  -3.404  28.593  0.00  0.00    +0.295 HD
ENDBRANCH  16  18
ENDBRANCH  12  16
ENDBRANCH  11  12
ENDBRANCH   1  11
TORSDOF 5
ENDMDL
MODEL 8
REMARK VINA RESULT:      -5.0     21.590     23.029
REMARK  Name = peptide_23_GSGWYPSWWW
REMARK  5 active torsions:
REMARK  status: ('A' for Active; 'I' for Inactive)
REMARK    1  A    between atoms: N_1  and  CA_2
REMARK    2  A    between atoms: CA_2  and  CB_3
REMARK    3  A    between atoms: CA_2  and  C_13
REMARK    4  A    between atoms: CB_3  and  CG_4
REMARK    5  A    between atoms: C_13  and  OXT_15
REMARK                            x       y       z     vdW  Elec       q    Type
REMARK                         _______ _______ _______ _____ _____    ______ ____
ROOT
ATOM      1  CG  TRP A   1       2.533  -0.192  24.207  0.00  0.00    -0.020 A 
ATOM      2  CD1 TRP A   1       3.543   0.761  24.106  0.00  0.00    +0.087 A 
ATOM      3  NE1 TRP A   1       4.758   0.172  24.198  0.00  0.00    -0.360 N 
ATOM      4  CE2 TRP A   1       4.522  -1.141  24.368  0.00  0.00    +0.047 A 
ATOM      5  CZ2 TRP A   1       5.465  -2.154  24.532  0.00  0.00    +0.026 A 
ATOM      6  CH2 TRP A   1       4.995  -3.467  24.716  0.00  0.00    +0.002 A 
ATOM      7  CZ3 TRP A   1       3.608  -3.734  24.735  0.00  0.00    +0.001 A 
ATOM      8  CE3 TRP A   1       2.679  -2.691  24.570  0.00  0.00    +0.010 A 
ATOM      9  CD2 TRP A   1       3.176  -1.401  24.383  0.00  0.00    +0.003 A 
ATOM     10  HE1 TRP A   1       5.686   0.647  24.160  0.00  0.00    +0.165 HD
ENDROOT
BRANCH   1  11
ATOM     11  CB  TRP A   1       1.053   0.070  24.224  0.00  0.00    +0.067 C 
BRANCH  11  12
ATOM     12  CA  TRP A   1       0.679   1.143  25.266  0.00  0.00    +0.165 C 
BRANCH  12  13
ATOM     13  N   TRP A   1       0.039   0.537  26.435  0.00  0.00    -0.318 NA
ATOM     14  H1  TRP A   1       0.440  -0.419  26.577  0.00  0.00    +0.119 HD
ATOM     15  H2  TRP A   1      -0.985   0.418  26.252  0.00  0.00    +0.119 HD
ENDBRANCH  12  13
BRANCH  12  16
ATOM     16  C   TRP A   1      -0.231   2.183  24.674  0.00  0.00    +0.322 C 
ATOM     17  O   TRP A   1       0.105   2.807  23.632  0.00  0.00    -0.249 OA
BRANCH  16  18
ATOM     18  OXT TRP A   1      -1.439   2.480  25.299  0.00  0.00    -0.479 OA
ATOM     19  HXT TRP A   1      -2.296   2.019  25.019  0.00  0.00    +0.295 HD
ENDBRANCH  16  18
ENDBRANCH  12  16
ENDBRANCH  11  12
ENDBRANCH   1  11
TORSDOF 5
ENDMDL
MODEL 9
REMARK VINA RESULT:      -4.8     14.258     15.825
REMARK  Name = peptide_23_GSGWYPSWWW
REMARK  5 active torsions:
REMARK  status: ('A' for Active; 'I' for Inactive)
REMARK    1  A    between atoms: N_1  and  CA_2
REMARK    2  A    between atoms: CA_2  and  CB_3
REMARK    3  A    between atoms: CA_2  and  C_13
REMARK    4  A    between atoms: CB_3  and  CG_4
REMARK    5  A    between atoms: C_13  and  OXT_15
REMARK                            x       y       z     vdW  Elec       q    Type
REMARK                         _______ _______ _______ _____ _____    ______ ____
ROOT
ATOM      1  CG  TRP A   1       5.760  -1.913  11.928  0.00  0.00    -0.020 A 
ATOM      2  CD1 TRP A   1       6.934  -1.974  11.183  0.00  0.00    +0.087 A 
ATOM      3  NE1 TRP A   1       6.651  -2.085   9.865  0.00  0.00    -0.360 N 
ATOM      4  CE2 TRP A   1       5.310  -2.108   9.774  0.00  0.00    +0.047 A 
ATOM      5  CZ2 TRP A   1       4.543  -2.230   8.616  0.00  0.00    +0.026 A 
ATOM      6  CH2 TRP A   1       3.143  -2.250   8.752  0.00  0.00    +0.002 A 
ATOM      7  CZ3 TRP A   1       2.548  -2.153  10.029  0.00  0.00    +0.001 A 
ATOM      8  CE3 TRP A   1       3.346  -2.032  11.181  0.00  0.00    +0.010 A 
ATOM      9  CD2 TRP A   1       4.730  -2.009  11.013  0.00  0.00    +0.003 A 
ATOM     10  HE1 TRP A   1       7.338  -2.156   9.082  0.00  0.00    +0.165 HD
ENDROOT
BRANCH   1  11
ATOM     11  CB  TRP A   1       5.651  -1.860  13.426  0.00  0.00    +0.067 C 
BRANCH  11  12
ATOM     12  CA  TRP A   1       7.040  -1.864  14.096  0.00  0.00    +0.165 C 
BRANCH  12  13
ATOM     13  N   TRP A   1       7.324  -3.164  14.707  0.00  0.00    -0.318 NA
ATOM     14  H1  TRP A   1       8.350  -3.352  14.629  0.00  0.00    +0.119 HD
ATOM     15  H2  TRP A   1       6.830  -3.917  14.174  0.00  0.00    +0.119 HD
ENDBRANCH  12  13
BRANCH  12  16
ATOM     16  C   TRP A   1       7.147  -0.783  15.135  0.00  0.00    +0.322 C 
ATOM     17  O   TRP A   1       7.667  -1.025  16.258  0.00  0.00    -0.249 OA
BRANCH  16  18
ATOM     18  OXT TRP A   1       6.640   0.486  14.867  0.00  0.00    -0.479 OA
ATOM     19  HXT TRP A   1       5.648   0.629  14.722  0.00  0.00    +0.295 HD
ENDBRANCH  16  18
ENDBRANCH  12  16
ENDBRANCH  11  12
ENDBRANCH   1  11
TORSDOF 5
ENDMDL
