MODEL 1
REMARK VINA RESULT:      -6.2      0.000      0.000
REMARK  Name = peptide_10_QRCWIDKTCQ
REMARK  5 active torsions:
REMARK  status: ('A' for Active; 'I' for Inactive)
REMARK    1  A    between atoms: N_1  and  CA_2
REMARK    2  A    between atoms: CA_2  and  CB_3
REMARK    3  A    between atoms: CA_2  and  C_13
REMARK    4  A    between atoms: CB_3  and  CG_4
REMARK    5  A    between atoms: C_13  and  OXT_15
REMARK                            x       y       z     vdW  Elec       q    Type
REMARK                         _______ _______ _______ _____ _____    ______ ____
ROOT
ATOM      1  CG  TRP A   1      18.349   5.317   9.125  0.00  0.00    -0.020 A 
ATOM      2  CD1 TRP A   1      18.137   3.942   9.110  0.00  0.00    +0.087 A 
ATOM      3  NE1 TRP A   1      19.317   3.281   9.147  0.00  0.00    -0.360 N 
ATOM      4  CE2 TRP A   1      20.271   4.228   9.173  0.00  0.00    +0.047 A 
ATOM      5  CZ2 TRP A   1      21.652   4.036   9.196  0.00  0.00    +0.026 A 
ATOM      6  CH2 TRP A   1      22.475   5.176   9.199  0.00  0.00    +0.002 A 
ATOM      7  CZ3 TRP A   1      21.906   6.469   9.178  0.00  0.00    +0.001 A 
ATOM      8  CE3 TRP A   1      20.510   6.633   9.153  0.00  0.00    +0.010 A 
ATOM      9  CD2 TRP A   1      19.720   5.483   9.155  0.00  0.00    +0.003 A 
ATOM     10  HE1 TRP A   1      19.455   2.246   9.141  0.00  0.00    +0.165 HD
ENDROOT
BRANCH   1  11
ATOM     11  CB  TRP A   1      17.299   6.387   9.022  0.00  0.00    +0.067 C 
BRANCH  11  12
ATOM     12  CA  TRP A   1      16.183   6.188  10.067  0.00  0.00    +0.165 C 
BRANCH  12  13
ATOM     13  N   TRP A   1      14.988   6.955   9.709  0.00  0.00    -0.318 NA
ATOM     14  H1  TRP A   1      14.229   6.285   9.444  0.00  0.00    +0.119 HD
ATOM     15  H2  TRP A   1      15.188   7.544   8.867  0.00  0.00    +0.119 HD
ENDBRANCH  12  13
BRANCH  12  16
ATOM     16  C   TRP A   1      16.646   6.586  11.441  0.00  0.00    +0.322 C 
ATOM     17  O   TRP A   1      17.330   7.632  11.606  0.00  0.00    -0.249 OA
BRANCH  16  18
ATOM     18  OXT TRP A   1      16.344   5.778  12.533  0.00  0.00    -0.479 OA
ATOM     19  HXT TRP A   1      16.822   4.896  12.674  0.00  0.00    +0.295 HD
ENDBRANCH  16  18
ENDBRANCH  12  16
ENDBRANCH  11  12
ENDBRANCH   1  11
TORSDOF 5
ENDMDL
MODEL 2
REMARK VINA RESULT:      -6.1     46.077     47.335
REMARK  Name = peptide_10_QRCWIDKTCQ
REMARK  5 active torsions:
REMARK  status: ('A' for Active; 'I' for Inactive)
REMARK    1  A    between atoms: N_1  and  CA_2
REMARK    2  A    between atoms: CA_2  and  CB_3
REMARK    3  A    between atoms: CA_2  and  C_13
REMARK    4  A    between atoms: CB_3  and  CG_4
REMARK    5  A    between atoms: C_13  and  OXT_15
REMARK                            x       y       z     vdW  Elec       q    Type
REMARK                         _______ _______ _______ _____ _____    ______ ____
ROOT
ATOM      1  CG  TRP A   1      -9.451  -0.223  47.931  0.00  0.00    -0.020 A 
ATOM      2  CD1 TRP A   1      -9.836   1.112  47.861  0.00  0.00    +0.087 A 
ATOM      3  NE1 TRP A   1      -8.751   1.919  47.902  0.00  0.00    -0.360 N 
ATOM      4  CE2 TRP A   1      -7.687   1.105  48.010  0.00  0.00    +0.047 A 
ATOM      5  CZ2 TRP A   1      -6.346   1.475  48.105  0.00  0.00    +0.026 A 
ATOM      6  CH2 TRP A   1      -5.388   0.452  48.231  0.00  0.00    +0.002 A 
ATOM      7  CZ3 TRP A   1      -5.788  -0.903  48.261  0.00  0.00    +0.001 A 
ATOM      8  CE3 TRP A   1      -7.149  -1.246  48.164  0.00  0.00    +0.010 A 
ATOM      9  CD2 TRP A   1      -8.073  -0.210  48.035  0.00  0.00    +0.003 A 
ATOM     10  HE1 TRP A   1      -8.747   2.963  47.872  0.00  0.00    +0.165 HD
ENDROOT
BRANCH   1  11
ATOM     11  CB  TRP A   1     -10.362  -1.417  47.986  0.00  0.00    +0.067 C 
BRANCH  11  12
ATOM     12  CA  TRP A   1     -11.620  -1.211  47.119  0.00  0.00    +0.165 C 
BRANCH  12  13
ATOM     13  N   TRP A   1     -12.765  -1.932  47.677  0.00  0.00    -0.318 NA
ATOM     14  H1  TRP A   1     -13.105  -1.416  48.521  0.00  0.00    +0.119 HD
ATOM     15  H2  TRP A   1     -12.460  -2.881  47.998  0.00  0.00    +0.119 HD
ENDBRANCH  12  13
BRANCH  12  16
ATOM     16  C   TRP A   1     -11.384  -1.656  45.702  0.00  0.00    +0.322 C 
ATOM     17  O   TRP A   1     -10.903  -2.797  45.464  0.00  0.00    -0.249 OA
BRANCH  16  18
ATOM     18  OXT TRP A   1     -11.670  -0.791  44.650  0.00  0.00    -0.479 OA
ATOM     19  HXT TRP A   1     -12.293  -1.071  43.901  0.00  0.00    +0.295 HD
ENDBRANCH  16  18
ENDBRANCH  12  16
ENDBRANCH  11  12
ENDBRANCH   1  11
TORSDOF 5
ENDMDL
MODEL 3
REMARK VINA RESULT:      -5.7     45.021     46.705
REMARK  Name = peptide_10_QRCWIDKTCQ
REMARK  5 active torsions:
REMARK  status: ('A' for Active; 'I' for Inactive)
REMARK    1  A    between atoms: N_1  and  CA_2
REMARK    2  A    between atoms: CA_2  and  CB_3
REMARK    3  A    between atoms: CA_2  and  C_13
REMARK    4  A    between atoms: CB_3  and  CG_4
REMARK    5  A    between atoms: C_13  and  OXT_15
REMARK                            x       y       z     vdW  Elec       q    Type
REMARK                         _______ _______ _______ _____ _____    ______ ____
ROOT
ATOM      1  CG  TRP A   1      -6.541  -0.017  48.690  0.00  0.00    -0.020 A 
ATOM      2  CD1 TRP A   1      -6.296   1.345  48.544  0.00  0.00    +0.087 A 
ATOM      3  NE1 TRP A   1      -7.406   1.980  48.103  0.00  0.00    -0.360 N 
ATOM      4  CE2 TRP A   1      -8.344   1.028  47.957  0.00  0.00    +0.047 A 
ATOM      5  CZ2 TRP A   1      -9.653   1.194  47.505  0.00  0.00    +0.026 A 
ATOM      6  CH2 TRP A   1     -10.466   0.050  47.410  0.00  0.00    +0.002 A 
ATOM      7  CZ3 TRP A   1      -9.957  -1.220  47.761  0.00  0.00    +0.001 A 
ATOM      8  CE3 TRP A   1      -8.632  -1.358  48.212  0.00  0.00    +0.010 A 
ATOM      9  CD2 TRP A   1      -7.853  -0.205  48.301  0.00  0.00    +0.003 A 
ATOM     10  HE1 TRP A   1      -7.505   3.000  47.902  0.00  0.00    +0.165 HD
ENDROOT
BRANCH   1  11
ATOM     11  CB  TRP A   1      -5.545  -1.069  49.087  0.00  0.00    +0.067 C 
BRANCH  11  12
ATOM     12  CA  TRP A   1      -4.580  -1.402  47.931  0.00  0.00    +0.165 C 
BRANCH  12  13
ATOM     13  N   TRP A   1      -5.173  -2.383  47.020  0.00  0.00    -0.318 NA
ATOM     14  H1  TRP A   1      -4.435  -2.703  46.350  0.00  0.00    +0.119 HD
ATOM     15  H2  TRP A   1      -5.926  -1.925  46.455  0.00  0.00    +0.119 HD
ENDBRANCH  12  13
BRANCH  12  16
ATOM     16  C   TRP A   1      -3.268  -1.923  48.450  0.00  0.00    +0.322 C 
ATOM     17  O   TRP A   1      -3.168  -2.330  49.639  0.00  0.00    -0.249 OA
BRANCH  16  18
ATOM     18  OXT TRP A   1      -2.150  -1.927  47.620  0.00  0.00    -0.479 OA
ATOM     19  HXT TRP A   1      -1.903  -2.751  47.085  0.00  0.00    +0.295 HD
ENDBRANCH  16  18
ENDBRANCH  12  16
ENDBRANCH  11  12
ENDBRANCH   1  11
TORSDOF 5
ENDMDL
MODEL 4
REMARK VINA RESULT:      -5.6      3.892      5.551
REMARK  Name = peptide_10_QRCWIDKTCQ
REMARK  5 active torsions:
REMARK  status: ('A' for Active; 'I' for Inactive)
REMARK    1  A    between atoms: N_1  and  CA_2
REMARK    2  A    between atoms: CA_2  and  CB_3
REMARK    3  A    between atoms: CA_2  and  C_13
REMARK    4  A    between atoms: CB_3  and  CG_4
REMARK    5  A    between atoms: C_13  and  OXT_15
REMARK                            x       y       z     vdW  Elec       q    Type
REMARK                         _______ _______ _______ _____ _____    ______ ____
ROOT
ATOM      1  CG  TRP A   1      21.460   5.443   8.638  0.00  0.00    -0.020 A 
ATOM      2  CD1 TRP A   1      21.702   4.074   8.704  0.00  0.00    +0.087 A 
ATOM      3  NE1 TRP A   1      20.578   3.413   9.064  0.00  0.00    -0.360 N 
ATOM      4  CE2 TRP A   1      19.633   4.354   9.236  0.00  0.00    +0.047 A 
ATOM      5  CZ2 TRP A   1      18.309   4.161   9.628  0.00  0.00    +0.026 A 
ATOM      6  CH2 TRP A   1      17.491   5.297   9.767  0.00  0.00    +0.002 A 
ATOM      7  CZ3 TRP A   1      18.010   6.587   9.516  0.00  0.00    +0.001 A 
ATOM      8  CE3 TRP A   1      19.351   6.752   9.124  0.00  0.00    +0.010 A 
ATOM      9  CD2 TRP A   1      20.135   5.606   8.990  0.00  0.00    +0.003 A 
ATOM     10  HE1 TRP A   1      20.473   2.383   9.195  0.00  0.00    +0.165 HD
ENDROOT
BRANCH   1  11
ATOM     11  CB  TRP A   1      22.469   6.517   8.345  0.00  0.00    +0.067 C 
BRANCH  11  12
ATOM     12  CA  TRP A   1      23.439   6.722   9.526  0.00  0.00    +0.165 C 
BRANCH  12  13
ATOM     13  N   TRP A   1      22.834   7.561  10.562  0.00  0.00    -0.318 NA
ATOM     14  H1  TRP A   1      23.300   7.351  11.475  0.00  0.00    +0.119 HD
ATOM     15  H2  TRP A   1      21.822   7.314  10.667  0.00  0.00    +0.119 HD
ENDBRANCH  12  13
BRANCH  12  16
ATOM     16  C   TRP A   1      24.733   7.337   9.069  0.00  0.00    +0.322 C 
ATOM     17  O   TRP A   1      24.812   7.888   7.938  0.00  0.00    -0.249 OA
BRANCH  16  18
ATOM     18  OXT TRP A   1      25.857   7.270   9.887  0.00  0.00    -0.479 OA
ATOM     19  HXT TRP A   1      26.725   7.716   9.615  0.00  0.00    +0.295 HD
ENDBRANCH  16  18
ENDBRANCH  12  16
ENDBRANCH  11  12
ENDBRANCH   1  11
TORSDOF 5
ENDMDL
MODEL 5
REMARK VINA RESULT:      -5.3     18.004     19.142
REMARK  Name = peptide_10_QRCWIDKTCQ
REMARK  5 active torsions:
REMARK  status: ('A' for Active; 'I' for Inactive)
REMARK    1  A    between atoms: N_1  and  CA_2
REMARK    2  A    between atoms: CA_2  and  CB_3
REMARK    3  A    between atoms: CA_2  and  C_13
REMARK    4  A    between atoms: CB_3  and  CG_4
REMARK    5  A    between atoms: C_13  and  OXT_15
REMARK                            x       y       z     vdW  Elec       q    Type
REMARK                         _______ _______ _______ _____ _____    ______ ____
ROOT
ATOM      1  CG  TRP A   1       8.446   7.836  25.272  0.00  0.00    -0.020 A 
ATOM      2  CD1 TRP A   1       9.748   7.948  24.795  0.00  0.00    +0.087 A 
ATOM      3  NE1 TRP A   1      10.472   6.857  25.136  0.00  0.00    -0.360 N 
ATOM      4  CE2 TRP A   1       9.640   6.064  25.835  0.00  0.00    +0.047 A 
ATOM      5  CZ2 TRP A   1       9.936   4.832  26.415  0.00  0.00    +0.026 A 
ATOM      6  CH2 TRP A   1       8.914   4.175  27.125  0.00  0.00    +0.002 A 
ATOM      7  CZ3 TRP A   1       7.633   4.761  27.239  0.00  0.00    +0.001 A 
ATOM      8  CE3 TRP A   1       7.363   6.006  26.644  0.00  0.00    +0.010 A 
ATOM      9  CD2 TRP A   1       8.396   6.630  25.943  0.00  0.00    +0.003 A 
ATOM     10  HE1 TRP A   1      11.476   6.678  24.914  0.00  0.00    +0.165 HD
ENDROOT
BRANCH   1  11
ATOM     11  CB  TRP A   1       7.360   8.869  25.164  0.00  0.00    +0.067 C 
BRANCH  11  12
ATOM     12  CA  TRP A   1       7.039   9.202  23.693  0.00  0.00    +0.165 C 
BRANCH  12  13
ATOM     13  N   TRP A   1       6.959  10.649  23.488  0.00  0.00    -0.318 NA
ATOM     14  H1  TRP A   1       5.977  10.894  23.220  0.00  0.00    +0.119 HD
ATOM     15  H2  TRP A   1       7.575  10.925  22.688  0.00  0.00    +0.119 HD
ENDBRANCH  12  13
BRANCH  12  16
ATOM     16  C   TRP A   1       5.752   8.558  23.257  0.00  0.00    +0.322 C 
ATOM     17  O   TRP A   1       4.813   9.258  22.793  0.00  0.00    -0.249 OA
BRANCH  16  18
ATOM     18  OXT TRP A   1       5.586   7.182  23.396  0.00  0.00    -0.479 OA
ATOM     19  HXT TRP A   1       5.786   6.555  22.626  0.00  0.00    +0.295 HD
ENDBRANCH  16  18
ENDBRANCH  12  16
ENDBRANCH  11  12
ENDBRANCH   1  11
TORSDOF 5
ENDMDL
MODEL 6
REMARK VINA RESULT:      -5.3      3.089      5.472
REMARK  Name = peptide_10_QRCWIDKTCQ
REMARK  5 active torsions:
REMARK  status: ('A' for Active; 'I' for Inactive)
REMARK    1  A    between atoms: N_1  and  CA_2
REMARK    2  A    between atoms: CA_2  and  CB_3
REMARK    3  A    between atoms: CA_2  and  C_13
REMARK    4  A    between atoms: CB_3  and  CG_4
REMARK    5  A    between atoms: C_13  and  OXT_15
REMARK                            x       y       z     vdW  Elec       q    Type
REMARK                         _______ _______ _______ _____ _____    ______ ____
ROOT
ATOM      1  CG  TRP A   1      19.799   7.377   9.296  0.00  0.00    -0.020 A 
ATOM      2  CD1 TRP A   1      19.626   8.690   9.725  0.00  0.00    +0.087 A 
ATOM      3  NE1 TRP A   1      18.346   8.897  10.108  0.00  0.00    -0.360 N 
ATOM      4  CE2 TRP A   1      17.707   7.730   9.913  0.00  0.00    +0.047 A 
ATOM      5  CZ2 TRP A   1      16.360   7.454  10.147  0.00  0.00    +0.026 A 
ATOM      6  CH2 TRP A   1      15.892   6.160   9.853  0.00  0.00    +0.002 A 
ATOM      7  CZ3 TRP A   1      16.771   5.183   9.335  0.00  0.00    +0.001 A 
ATOM      8  CE3 TRP A   1      18.125   5.490   9.108  0.00  0.00    +0.010 A 
ATOM      9  CD2 TRP A   1      18.559   6.779   9.415  0.00  0.00    +0.003 A 
ATOM     10  HE1 TRP A   1      17.937   9.788  10.467  0.00  0.00    +0.165 HD
ENDROOT
BRANCH   1  11
ATOM     11  CB  TRP A   1      21.054   6.778   8.726  0.00  0.00    +0.067 C 
BRANCH  11  12
ATOM     12  CA  TRP A   1      21.751   5.850   9.741  0.00  0.00    +0.165 C 
BRANCH  12  13
ATOM     13  N   TRP A   1      23.080   6.356  10.088  0.00  0.00    -0.318 NA
ATOM     14  H1  TRP A   1      23.401   6.999   9.327  0.00  0.00    +0.119 HD
ATOM     15  H2  TRP A   1      23.759   5.560  10.127  0.00  0.00    +0.119 HD
ENDBRANCH  12  13
BRANCH  12  16
ATOM     16  C   TRP A   1      21.867   4.449   9.208  0.00  0.00    +0.322 C 
ATOM     17  O   TRP A   1      22.689   3.639   9.715  0.00  0.00    -0.249 OA
BRANCH  16  18
ATOM     18  OXT TRP A   1      21.083   4.054   8.127  0.00  0.00    -0.479 OA
ATOM     19  HXT TRP A   1      20.193   3.593   8.273  0.00  0.00    +0.295 HD
ENDBRANCH  16  18
ENDBRANCH  12  16
ENDBRANCH  11  12
ENDBRANCH   1  11
TORSDOF 5
ENDMDL
MODEL 7
REMARK VINA RESULT:      -5.2      2.695      5.358
REMARK  Name = peptide_10_QRCWIDKTCQ
REMARK  5 active torsions:
REMARK  status: ('A' for Active; 'I' for Inactive)
REMARK    1  A    between atoms: N_1  and  CA_2
REMARK    2  A    between atoms: CA_2  and  CB_3
REMARK    3  A    between atoms: CA_2  and  C_13
REMARK    4  A    between atoms: CB_3  and  CG_4
REMARK    5  A    between atoms: C_13  and  OXT_15
REMARK                            x       y       z     vdW  Elec       q    Type
REMARK                         _______ _______ _______ _____ _____    ______ ____
ROOT
ATOM      1  CG  TRP A   1      18.029   6.759   9.687  0.00  0.00    -0.020 A 
ATOM      2  CD1 TRP A   1      17.166   6.747   8.596  0.00  0.00    +0.087 A 
ATOM      3  NE1 TRP A   1      15.989   7.332   8.919  0.00  0.00    -0.360 N 
ATOM      4  CE2 TRP A   1      16.099   7.700  10.208  0.00  0.00    +0.047 A 
ATOM      5  CZ2 TRP A   1      15.132   8.325  10.993  0.00  0.00    +0.026 A 
ATOM      6  CH2 TRP A   1      15.454   8.605  12.334  0.00  0.00    +0.002 A 
ATOM      7  CZ3 TRP A   1      16.720   8.254  12.854  0.00  0.00    +0.001 A 
ATOM      8  CE3 TRP A   1      17.675   7.622  12.038  0.00  0.00    +0.010 A 
ATOM      9  CD2 TRP A   1      17.329   7.363  10.712  0.00  0.00    +0.003 A 
ATOM     10  HE1 TRP A   1      15.160   7.455   8.296  0.00  0.00    +0.165 HD
ENDROOT
BRANCH   1  11
ATOM     11  CB  TRP A   1      19.398   6.143   9.752  0.00  0.00    +0.067 C 
BRANCH  11  12
ATOM     12  CA  TRP A   1      19.411   4.723   9.151  0.00  0.00    +0.165 C 
BRANCH  12  13
ATOM     13  N   TRP A   1      18.853   3.750  10.093  0.00  0.00    -0.318 NA
ATOM     14  H1  TRP A   1      18.977   4.119  11.064  0.00  0.00    +0.119 HD
ATOM     15  H2  TRP A   1      19.392   2.855  10.031  0.00  0.00    +0.119 HD
ENDBRANCH  12  13
BRANCH  12  16
ATOM     16  C   TRP A   1      20.803   4.308   8.761  0.00  0.00    +0.322 C 
ATOM     17  O   TRP A   1      21.587   5.134   8.220  0.00  0.00    -0.249 OA
BRANCH  16  18
ATOM     18  OXT TRP A   1      21.217   2.996   8.971  0.00  0.00    -0.479 OA
ATOM     19  HXT TRP A   1      20.778   2.420   9.680  0.00  0.00    +0.295 HD
ENDBRANCH  16  18
ENDBRANCH  12  16
ENDBRANCH  11  12
ENDBRANCH   1  11
TORSDOF 5
ENDMDL
MODEL 8
REMARK VINA RESULT:      -5.1     21.593     23.050
REMARK  Name = peptide_10_QRCWIDKTCQ
REMARK  5 active torsions:
REMARK  status: ('A' for Active; 'I' for Inactive)
REMARK    1  A    between atoms: N_1  and  CA_2
REMARK    2  A    between atoms: CA_2  and  CB_3
REMARK    3  A    between atoms: CA_2  and  C_13
REMARK    4  A    between atoms: CB_3  and  CG_4
REMARK    5  A    between atoms: C_13  and  OXT_15
REMARK                            x       y       z     vdW  Elec       q    Type
REMARK                         _______ _______ _______ _____ _____    ______ ____
ROOT
ATOM      1  CG  TRP A   1       2.543  -0.182  24.204  0.00  0.00    -0.020 A 
ATOM      2  CD1 TRP A   1       3.564   0.761  24.130  0.00  0.00    +0.087 A 
ATOM      3  NE1 TRP A   1       4.771   0.157  24.222  0.00  0.00    -0.360 N 
ATOM      4  CE2 TRP A   1       4.520  -1.155  24.367  0.00  0.00    +0.047 A 
ATOM      5  CZ2 TRP A   1       5.450  -2.182  24.521  0.00  0.00    +0.026 A 
ATOM      6  CH2 TRP A   1       4.964  -3.493  24.678  0.00  0.00    +0.002 A 
ATOM      7  CZ3 TRP A   1       3.574  -3.745  24.680  0.00  0.00    +0.001 A 
ATOM      8  CE3 TRP A   1       2.658  -2.689  24.524  0.00  0.00    +0.010 A 
ATOM      9  CD2 TRP A   1       3.171  -1.401  24.365  0.00  0.00    +0.003 A 
ATOM     10  HE1 TRP A   1       5.706   0.622  24.202  0.00  0.00    +0.165 HD
ENDROOT
BRANCH   1  11
ATOM     11  CB  TRP A   1       1.066   0.096  24.212  0.00  0.00    +0.067 C 
BRANCH  11  12
ATOM     12  CA  TRP A   1       0.675   1.049  25.360  0.00  0.00    +0.165 C 
BRANCH  12  13
ATOM     13  N   TRP A   1      -0.025   0.329  26.424  0.00  0.00    -0.318 NA
ATOM     14  H1  TRP A   1      -0.659   0.999  26.919  0.00  0.00    +0.119 HD
ATOM     15  H2  TRP A   1       0.668  -0.017  27.128  0.00  0.00    +0.119 HD
ENDBRANCH  12  13
BRANCH  12  16
ATOM     16  C   TRP A   1      -0.187   2.176  24.861  0.00  0.00    +0.322 C 
ATOM     17  O   TRP A   1      -1.343   2.352  25.331  0.00  0.00    -0.249 OA
BRANCH  16  18
ATOM     18  OXT TRP A   1       0.284   3.012  23.852  0.00  0.00    -0.479 OA
ATOM     19  HXT TRP A   1       0.741   2.630  23.032  0.00  0.00    +0.295 HD
ENDBRANCH  16  18
ENDBRANCH  12  16
ENDBRANCH  11  12
ENDBRANCH   1  11
TORSDOF 5
ENDMDL
MODEL 9
REMARK VINA RESULT:      -5.1     21.382     22.921
REMARK  Name = peptide_10_QRCWIDKTCQ
REMARK  5 active torsions:
REMARK  status: ('A' for Active; 'I' for Inactive)
REMARK    1  A    between atoms: N_1  and  CA_2
REMARK    2  A    between atoms: CA_2  and  CB_3
REMARK    3  A    between atoms: CA_2  and  C_13
REMARK    4  A    between atoms: CB_3  and  CG_4
REMARK    5  A    between atoms: C_13  and  OXT_15
REMARK                            x       y       z     vdW  Elec       q    Type
REMARK                         _______ _______ _______ _____ _____    ______ ____
ROOT
ATOM      1  CG  TRP A   1       4.552  -1.958  24.810  0.00  0.00    -0.020 A 
ATOM      2  CD1 TRP A   1       5.624  -1.101  24.583  0.00  0.00    +0.087 A 
ATOM      3  NE1 TRP A   1       5.190   0.072  24.065  0.00  0.00    -0.360 N 
ATOM      4  CE2 TRP A   1       3.855  -0.045  23.953  0.00  0.00    +0.047 A 
ATOM      5  CZ2 TRP A   1       2.964   0.903  23.450  0.00  0.00    +0.026 A 
ATOM      6  CH2 TRP A   1       1.599   0.563  23.404  0.00  0.00    +0.002 A 
ATOM      7  CZ3 TRP A   1       1.162  -0.702  23.854  0.00  0.00    +0.001 A 
ATOM      8  CE3 TRP A   1       2.084  -1.639  24.355  0.00  0.00    +0.010 A 
ATOM      9  CD2 TRP A   1       3.429  -1.271  24.393  0.00  0.00    +0.003 A 
ATOM     10  HE1 TRP A   1       5.777   0.891  23.795  0.00  0.00    +0.165 HD
ENDROOT
BRANCH   1  11
ATOM     11  CB  TRP A   1       4.626  -3.374  25.307  0.00  0.00    +0.067 C 
BRANCH  11  12
ATOM     12  CA  TRP A   1       5.902  -3.617  26.138  0.00  0.00    +0.165 C 
BRANCH  12  13
ATOM     13  N   TRP A   1       6.434  -4.960  25.902  0.00  0.00    -0.318 NA
ATOM     14  H1  TRP A   1       7.410  -5.003  26.279  0.00  0.00    +0.119 HD
ATOM     15  H2  TRP A   1       6.493  -5.138  24.872  0.00  0.00    +0.119 HD
ENDBRANCH  12  13
BRANCH  12  16
ATOM     16  C   TRP A   1       5.640  -3.428  27.607  0.00  0.00    +0.322 C 
ATOM     17  O   TRP A   1       5.457  -4.426  28.356  0.00  0.00    -0.249 OA
BRANCH  16  18
ATOM     18  OXT TRP A   1       5.567  -2.143  28.136  0.00  0.00    -0.479 OA
ATOM     19  HXT TRP A   1       6.142  -1.395  27.765  0.00  0.00    +0.295 HD
ENDBRANCH  16  18
ENDBRANCH  12  16
ENDBRANCH  11  12
ENDBRANCH   1  11
TORSDOF 5
ENDMDL
