MODEL 1
REMARK VINA RESULT:      -4.3      0.000      0.000
REMARK  Name = peptide_3_RIPHHCKDRP
REMARK  7 active torsions:
REMARK  status: ('A' for Active; 'I' for Inactive)
REMARK    1  A    between atoms: N_1  and  CA_2
REMARK    2  A    between atoms: CA_2  and  CB_3
REMARK    3  A    between atoms: CA_2  and  C_7
REMARK    4  A    between atoms: CB_3  and  CG2_4
REMARK    5  A    between atoms: CB_3  and  CG1_5
REMARK    6  A    between atoms: CG1_5  and  CD1_6
REMARK    7  A    between atoms: C_7  and  OXT_9
REMARK                            x       y       z     vdW  Elec       q    Type
REMARK                         _______ _______ _______ _____ _____    ______ ____
ROOT
ATOM      1  CA  ILE A   1      20.720   4.438   8.619  0.00  0.00    +0.164 C 
ENDROOT
BRANCH   1   2
ATOM      2  N   ILE A   1      21.075   3.062   8.981  0.00  0.00    -0.318 NA
ATOM      3  H1  ILE A   1      20.253   2.611   9.446  0.00  0.00    +0.119 HD
ATOM      4  H2  ILE A   1      21.813   3.094   9.720  0.00  0.00    +0.119 HD
ENDBRANCH   1   2
BRANCH   1   5
ATOM      5  CB  ILE A   1      19.588   4.991   9.540  0.00  0.00    +0.013 C 
ATOM      6  CG2 ILE A   1      19.377   6.497   9.289  0.00  0.00    +0.009 C 
BRANCH   5   7
ATOM      7  CG1 ILE A   1      18.239   4.243   9.339  0.00  0.00    +0.002 C 
ATOM      8  CD1 ILE A   1      17.035   5.188   9.348  0.00  0.00    +0.004 C 
ENDBRANCH   5   7
ENDBRANCH   1   5
BRANCH   1   9
ATOM      9  C   ILE A   1      21.951   5.303   8.718  0.00  0.00    +0.322 C 
ATOM     10  O   ILE A   1      22.406   5.877   7.692  0.00  0.00    -0.249 OA
BRANCH   9  11
ATOM     11  OXT ILE A   1      22.586   5.473   9.946  0.00  0.00    -0.479 OA
ATOM     12  HXT ILE A   1      22.691   6.395  10.353  0.00  0.00    +0.295 HD
ENDBRANCH   9  11
ENDBRANCH   1   9
TORSDOF 5
ENDMDL
MODEL 2
REMARK VINA RESULT:      -4.2      2.650      3.752
REMARK  Name = peptide_3_RIPHHCKDRP
REMARK  7 active torsions:
REMARK  status: ('A' for Active; 'I' for Inactive)
REMARK    1  A    between atoms: N_1  and  CA_2
REMARK    2  A    between atoms: CA_2  and  CB_3
REMARK    3  A    between atoms: CA_2  and  C_7
REMARK    4  A    between atoms: CB_3  and  CG2_4
REMARK    5  A    between atoms: CB_3  and  CG1_5
REMARK    6  A    between atoms: CG1_5  and  CD1_6
REMARK    7  A    between atoms: C_7  and  OXT_9
REMARK                            x       y       z     vdW  Elec       q    Type
REMARK                         _______ _______ _______ _____ _____    ______ ____
ROOT
ATOM      1  CA  ILE A   1      19.190   4.377   9.684  0.00  0.00    +0.164 C 
ENDROOT
BRANCH   1   2
ATOM      2  N   ILE A   1      18.784   3.066   9.168  0.00  0.00    -0.318 NA
ATOM      3  H1  ILE A   1      18.862   3.073   8.123  0.00  0.00    +0.119 HD
ATOM      4  H2  ILE A   1      17.765   2.937   9.356  0.00  0.00    +0.119 HD
ENDBRANCH   1   2
BRANCH   1   5
ATOM      5  CB  ILE A   1      20.386   4.961   8.868  0.00  0.00    +0.013 C 
ATOM      6  CG2 ILE A   1      20.621   6.438   9.239  0.00  0.00    +0.009 C 
BRANCH   5   7
ATOM      7  CG1 ILE A   1      21.703   4.160   9.085  0.00  0.00    +0.002 C 
ATOM      8  CD1 ILE A   1      22.941   5.060   9.104  0.00  0.00    +0.004 C 
ENDBRANCH   5   7
ENDBRANCH   1   5
BRANCH   1   9
ATOM      9  C   ILE A   1      18.008   5.311   9.630  0.00  0.00    +0.322 C 
ATOM     10  O   ILE A   1      17.429   5.538   8.534  0.00  0.00    -0.249 OA
BRANCH   9  11
ATOM     11  OXT ILE A   1      17.551   5.923  10.795  0.00  0.00    -0.479 OA
ATOM     12  HXT ILE A   1      17.735   6.904  10.972  0.00  0.00    +0.295 HD
ENDBRANCH   9  11
ENDBRANCH   1   9
TORSDOF 5
ENDMDL
MODEL 3
REMARK VINA RESULT:      -4.1     35.753     36.514
REMARK  Name = peptide_3_RIPHHCKDRP
REMARK  7 active torsions:
REMARK  status: ('A' for Active; 'I' for Inactive)
REMARK    1  A    between atoms: N_1  and  CA_2
REMARK    2  A    between atoms: CA_2  and  CB_3
REMARK    3  A    between atoms: CA_2  and  C_7
REMARK    4  A    between atoms: CB_3  and  CG2_4
REMARK    5  A    between atoms: CB_3  and  CG1_5
REMARK    6  A    between atoms: CG1_5  and  CD1_6
REMARK    7  A    between atoms: C_7  and  OXT_9
REMARK                            x       y       z     vdW  Elec       q    Type
REMARK                         _______ _______ _______ _____ _____    ______ ____
ROOT
ATOM      1  CA  ILE A   1      10.288  -4.728  42.470  0.00  0.00    +0.164 C 
ENDROOT
BRANCH   1   2
ATOM      2  N   ILE A   1       9.573  -3.517  42.055  0.00  0.00    -0.318 NA
ATOM      3  H1  ILE A   1       9.123  -3.083  42.895  0.00  0.00    +0.119 HD
ATOM      4  H2  ILE A   1       8.774  -3.798  41.443  0.00  0.00    +0.119 HD
ENDBRANCH   1   2
BRANCH   1   5
ATOM      5  CB  ILE A   1      11.781  -4.417  42.801  0.00  0.00    +0.013 C 
ATOM      6  CG2 ILE A   1      12.692  -5.560  42.308  0.00  0.00    +0.009 C 
BRANCH   5   7
ATOM      7  CG1 ILE A   1      12.262  -3.073  42.180  0.00  0.00    +0.002 C 
ATOM      8  CD1 ILE A   1      13.221  -3.278  41.006  0.00  0.00    +0.004 C 
ENDBRANCH   5   7
ENDBRANCH   1   5
BRANCH   1   9
ATOM      9  C   ILE A   1       9.593  -5.319  43.671  0.00  0.00    +0.322 C 
ATOM     10  O   ILE A   1       9.867  -6.490  44.047  0.00  0.00    -0.249 OA
BRANCH   9  11
ATOM     11  OXT ILE A   1       8.650  -4.569  44.368  0.00  0.00    -0.479 OA
ATOM     12  HXT ILE A   1       8.875  -4.158  45.266  0.00  0.00    +0.295 HD
ENDBRANCH   9  11
ENDBRANCH   1   9
TORSDOF 5
ENDMDL
MODEL 4
REMARK VINA RESULT:      -4.0     24.803     25.734
REMARK  Name = peptide_3_RIPHHCKDRP
REMARK  7 active torsions:
REMARK  status: ('A' for Active; 'I' for Inactive)
REMARK    1  A    between atoms: N_1  and  CA_2
REMARK    2  A    between atoms: CA_2  and  CB_3
REMARK    3  A    between atoms: CA_2  and  C_7
REMARK    4  A    between atoms: CB_3  and  CG2_4
REMARK    5  A    between atoms: CB_3  and  CG1_5
REMARK    6  A    between atoms: CG1_5  and  CD1_6
REMARK    7  A    between atoms: C_7  and  OXT_9
REMARK                            x       y       z     vdW  Elec       q    Type
REMARK                         _______ _______ _______ _____ _____    ______ ____
ROOT
ATOM      1  CA  ILE A   1       5.788  -2.626  28.316  0.00  0.00    +0.164 C 
ENDROOT
BRANCH   1   2
ATOM      2  N   ILE A   1       5.811  -1.908  27.037  0.00  0.00    -0.318 NA
ATOM      3  H1  ILE A   1       4.857  -1.516  26.851  0.00  0.00    +0.119 HD
ATOM      4  H2  ILE A   1       5.965  -2.601  26.271  0.00  0.00    +0.119 HD
ENDBRANCH   1   2
BRANCH   1   5
ATOM      5  CB  ILE A   1       5.312  -4.101  28.128  0.00  0.00    +0.013 C 
ATOM      6  CG2 ILE A   1       5.143  -4.791  29.496  0.00  0.00    +0.009 C 
BRANCH   5   7
ATOM      7  CG1 ILE A   1       3.977  -4.199  27.335  0.00  0.00    +0.002 C 
ATOM      8  CD1 ILE A   1       2.763  -4.388  28.247  0.00  0.00    +0.004 C 
ENDBRANCH   5   7
ENDBRANCH   1   5
BRANCH   1   9
ATOM      9  C   ILE A   1       7.168  -2.591  28.921  0.00  0.00    +0.322 C 
ATOM     10  O   ILE A   1       8.159  -3.006  28.263  0.00  0.00    -0.249 OA
BRANCH   9  11
ATOM     11  OXT ILE A   1       7.351  -2.094  30.209  0.00  0.00    -0.479 OA
ATOM     12  HXT ILE A   1       8.224  -2.240  30.703  0.00  0.00    +0.295 HD
ENDBRANCH   9  11
ENDBRANCH   1   9
TORSDOF 5
ENDMDL
MODEL 5
REMARK VINA RESULT:      -3.9     20.610     21.477
REMARK  Name = peptide_3_RIPHHCKDRP
REMARK  7 active torsions:
REMARK  status: ('A' for Active; 'I' for Inactive)
REMARK    1  A    between atoms: N_1  and  CA_2
REMARK    2  A    between atoms: CA_2  and  CB_3
REMARK    3  A    between atoms: CA_2  and  C_7
REMARK    4  A    between atoms: CB_3  and  CG2_4
REMARK    5  A    between atoms: CB_3  and  CG1_5
REMARK    6  A    between atoms: CG1_5  and  CD1_6
REMARK    7  A    between atoms: C_7  and  OXT_9
REMARK                            x       y       z     vdW  Elec       q    Type
REMARK                         _______ _______ _______ _____ _____    ______ ____
ROOT
ATOM      1  CA  ILE A   1       7.144   7.499  25.894  0.00  0.00    +0.164 C 
ENDROOT
BRANCH   1   2
ATOM      2  N   ILE A   1       6.059   7.512  26.880  0.00  0.00    -0.318 NA
ATOM      3  H1  ILE A   1       5.426   8.321  26.678  0.00  0.00    +0.119 HD
ATOM      4  H2  ILE A   1       6.467   7.724  27.819  0.00  0.00    +0.119 HD
ENDBRANCH   1   2
BRANCH   1   5
ATOM      5  CB  ILE A   1       7.768   6.075  25.759  0.00  0.00    +0.013 C 
ATOM      6  CG2 ILE A   1       9.300   6.168  25.621  0.00  0.00    +0.009 C 
BRANCH   5   7
ATOM      7  CG1 ILE A   1       7.415   5.152  26.961  0.00  0.00    +0.002 C 
ATOM      8  CD1 ILE A   1       8.624   4.366  27.474  0.00  0.00    +0.004 C 
ENDBRANCH   5   7
ENDBRANCH   1   5
BRANCH   1   9
ATOM      9  C   ILE A   1       6.605   7.968  24.567  0.00  0.00    +0.322 C 
ATOM     10  O   ILE A   1       6.920   9.104  24.122  0.00  0.00    -0.249 OA
BRANCH   9  11
ATOM     11  OXT ILE A   1       5.760   7.144  23.828  0.00  0.00    -0.479 OA
ATOM     12  HXT ILE A   1       5.321   7.479  22.979  0.00  0.00    +0.295 HD
ENDBRANCH   9  11
ENDBRANCH   1   9
TORSDOF 5
ENDMDL
MODEL 6
REMARK VINA RESULT:      -3.9     19.571     20.577
REMARK  Name = peptide_3_RIPHHCKDRP
REMARK  7 active torsions:
REMARK  status: ('A' for Active; 'I' for Inactive)
REMARK    1  A    between atoms: N_1  and  CA_2
REMARK    2  A    between atoms: CA_2  and  CB_3
REMARK    3  A    between atoms: CA_2  and  C_7
REMARK    4  A    between atoms: CB_3  and  CG2_4
REMARK    5  A    between atoms: CB_3  and  CG1_5
REMARK    6  A    between atoms: CG1_5  and  CD1_6
REMARK    7  A    between atoms: C_7  and  OXT_9
REMARK                            x       y       z     vdW  Elec       q    Type
REMARK                         _______ _______ _______ _____ _____    ______ ____
ROOT
ATOM      1  CA  ILE A   1       9.271   5.960  26.106  0.00  0.00    +0.164 C 
ENDROOT
BRANCH   1   2
ATOM      2  N   ILE A   1       9.713   5.335  24.855  0.00  0.00    -0.318 NA
ATOM      3  H1  ILE A   1       8.995   4.634  24.554  0.00  0.00    +0.119 HD
ATOM      4  H2  ILE A   1      10.569   4.769  25.051  0.00  0.00    +0.119 HD
ENDBRANCH   1   2
BRANCH   1   5
ATOM      5  CB  ILE A   1       9.694   7.461  26.169  0.00  0.00    +0.013 C 
ATOM      6  CG2 ILE A   1      10.683   7.694  27.327  0.00  0.00    +0.009 C 
BRANCH   5   7
ATOM      7  CG1 ILE A   1      10.333   7.955  24.839  0.00  0.00    +0.002 C 
ATOM      8  CD1 ILE A   1       9.432   8.933  24.081  0.00  0.00    +0.004 C 
ENDBRANCH   5   7
ENDBRANCH   1   5
BRANCH   1   9
ATOM      9  C   ILE A   1       7.773   5.827  26.217  0.00  0.00    +0.322 C 
ATOM     10  O   ILE A   1       7.252   5.422  27.290  0.00  0.00    -0.249 OA
BRANCH   9  11
ATOM     11  OXT ILE A   1       6.963   6.157  25.134  0.00  0.00    -0.479 OA
ATOM     12  HXT ILE A   1       5.958   6.041  25.183  0.00  0.00    +0.295 HD
ENDBRANCH   9  11
ENDBRANCH   1   9
TORSDOF 5
ENDMDL
MODEL 7
REMARK VINA RESULT:      -3.8     20.202     21.353
REMARK  Name = peptide_3_RIPHHCKDRP
REMARK  7 active torsions:
REMARK  status: ('A' for Active; 'I' for Inactive)
REMARK    1  A    between atoms: N_1  and  CA_2
REMARK    2  A    between atoms: CA_2  and  CB_3
REMARK    3  A    between atoms: CA_2  and  C_7
REMARK    4  A    between atoms: CB_3  and  CG2_4
REMARK    5  A    between atoms: CB_3  and  CG1_5
REMARK    6  A    between atoms: CG1_5  and  CD1_6
REMARK    7  A    between atoms: C_7  and  OXT_9
REMARK                            x       y       z     vdW  Elec       q    Type
REMARK                         _______ _______ _______ _____ _____    ______ ____
ROOT
ATOM      1  CA  ILE A   1       8.026   5.742  26.323  0.00  0.00    +0.164 C 
ENDROOT
BRANCH   1   2
ATOM      2  N   ILE A   1       6.765   6.219  26.900  0.00  0.00    -0.318 NA
ATOM      3  H1  ILE A   1       6.365   5.467  27.510  0.00  0.00    +0.119 HD
ATOM      4  H2  ILE A   1       6.069   6.331  26.129  0.00  0.00    +0.119 HD
ENDBRANCH   1   2
BRANCH   1   5
ATOM      5  CB  ILE A   1       9.028   6.919  26.105  0.00  0.00    +0.013 C 
ATOM      6  CG2 ILE A   1      10.031   6.572  24.987  0.00  0.00    +0.009 C 
BRANCH   5   7
ATOM      7  CG1 ILE A   1       8.310   8.255  25.754  0.00  0.00    +0.002 C 
ATOM      8  CD1 ILE A   1       8.962   9.466  26.425  0.00  0.00    +0.004 C 
ENDBRANCH   5   7
ENDBRANCH   1   5
BRANCH   1   9
ATOM      9  C   ILE A   1       8.622   4.705  27.240  0.00  0.00    +0.322 C 
ATOM     10  O   ILE A   1       8.475   4.803  28.488  0.00  0.00    -0.249 OA
BRANCH   9  11
ATOM     11  OXT ILE A   1       9.334   3.632  26.709  0.00  0.00    -0.479 OA
ATOM     12  HXT ILE A   1      10.112   3.224  27.214  0.00  0.00    +0.295 HD
ENDBRANCH   9  11
ENDBRANCH   1   9
TORSDOF 5
ENDMDL
MODEL 8
REMARK VINA RESULT:      -3.8     21.282     21.917
REMARK  Name = peptide_3_RIPHHCKDRP
REMARK  7 active torsions:
REMARK  status: ('A' for Active; 'I' for Inactive)
REMARK    1  A    between atoms: N_1  and  CA_2
REMARK    2  A    between atoms: CA_2  and  CB_3
REMARK    3  A    between atoms: CA_2  and  C_7
REMARK    4  A    between atoms: CB_3  and  CG2_4
REMARK    5  A    between atoms: CB_3  and  CG1_5
REMARK    6  A    between atoms: CG1_5  and  CD1_6
REMARK    7  A    between atoms: C_7  and  OXT_9
REMARK                            x       y       z     vdW  Elec       q    Type
REMARK                         _______ _______ _______ _____ _____    ______ ____
ROOT
ATOM      1  CA  ILE A   1      15.824   3.709  30.667  0.00  0.00    +0.164 C 
ENDROOT
BRANCH   1   2
ATOM      2  N   ILE A   1      17.021   4.516  30.411  0.00  0.00    -0.318 NA
ATOM      3  H1  ILE A   1      17.566   4.077  29.631  0.00  0.00    +0.119 HD
ATOM      4  H2  ILE A   1      17.651   4.449  31.242  0.00  0.00    +0.119 HD
ENDBRANCH   1   2
BRANCH   1   5
ATOM      5  CB  ILE A   1      14.570   4.613  30.882  0.00  0.00    +0.013 C 
ATOM      6  CG2 ILE A   1      14.582   5.225  32.297  0.00  0.00    +0.009 C 
BRANCH   5   7
ATOM      7  CG1 ILE A   1      14.469   5.754  29.829  0.00  0.00    +0.002 C 
ATOM      8  CD1 ILE A   1      13.255   6.657  30.055  0.00  0.00    +0.004 C 
ENDBRANCH   5   7
ENDBRANCH   1   5
BRANCH   1   9
ATOM      9  C   ILE A   1      15.607   2.772  29.507  0.00  0.00    +0.322 C 
ATOM     10  O   ILE A   1      16.028   3.078  28.359  0.00  0.00    -0.249 OA
BRANCH   9  11
ATOM     11  OXT ILE A   1      14.945   1.563  29.703  0.00  0.00    -0.479 OA
ATOM     12  HXT ILE A   1      14.017   1.539  30.108  0.00  0.00    +0.295 HD
ENDBRANCH   9  11
ENDBRANCH   1   9
TORSDOF 5
ENDMDL
MODEL 9
REMARK VINA RESULT:      -3.7     18.452     19.045
REMARK  Name = peptide_3_RIPHHCKDRP
REMARK  7 active torsions:
REMARK  status: ('A' for Active; 'I' for Inactive)
REMARK    1  A    between atoms: N_1  and  CA_2
REMARK    2  A    between atoms: CA_2  and  CB_3
REMARK    3  A    between atoms: CA_2  and  C_7
REMARK    4  A    between atoms: CB_3  and  CG2_4
REMARK    5  A    between atoms: CB_3  and  CG1_5
REMARK    6  A    between atoms: CG1_5  and  CD1_6
REMARK    7  A    between atoms: C_7  and  OXT_9
REMARK                            x       y       z     vdW  Elec       q    Type
REMARK                         _______ _______ _______ _____ _____    ______ ____
ROOT
ATOM      1  CA  ILE A   1      23.461   8.619  26.651  0.00  0.00    +0.164 C 
ENDROOT
BRANCH   1   2
ATOM      2  N   ILE A   1      23.726   9.406  25.442  0.00  0.00    -0.318 NA
ATOM      3  H1  ILE A   1      23.757  10.422  25.698  0.00  0.00    +0.119 HD
ATOM      4  H2  ILE A   1      22.903   9.320  24.804  0.00  0.00    +0.119 HD
ENDBRANCH   1   2
BRANCH   1   5
ATOM      5  CB  ILE A   1      23.149   9.543  27.870  0.00  0.00    +0.013 C 
ATOM      6  CG2 ILE A   1      23.977   9.113  29.097  0.00  0.00    +0.009 C 
BRANCH   5   7
ATOM      7  CG1 ILE A   1      23.424  11.044  27.566  0.00  0.00    +0.002 C 
ATOM      8  CD1 ILE A   1      24.448  11.660  28.521  0.00  0.00    +0.004 C 
ENDBRANCH   5   7
ENDBRANCH   1   5
BRANCH   1   9
ATOM      9  C   ILE A   1      22.307   7.687  26.385  0.00  0.00    +0.322 C 
ATOM     10  O   ILE A   1      21.525   7.907  25.421  0.00  0.00    -0.249 OA
BRANCH   9  11
ATOM     11  OXT ILE A   1      22.104   6.579  27.203  0.00  0.00    -0.479 OA
ATOM     12  HXT ILE A   1      21.196   6.131  27.255  0.00  0.00    +0.295 HD
ENDBRANCH   9  11
ENDBRANCH   1   9
TORSDOF 5
ENDMDL
