MODEL 1
REMARK VINA RESULT:      -4.9      0.000      0.000
REMARK  Name = peptide_6_CTGLPRIPNK
REMARK  6 active torsions:
REMARK  status: ('A' for Active; 'I' for Inactive)
REMARK    1  A    between atoms: N_1  and  CA_2
REMARK    2  A    between atoms: CA_2  and  CB_3
REMARK    3  A    between atoms: CA_2  and  C_11
REMARK    4  A    between atoms: CB_3  and  CG_4
REMARK    5  A    between atoms: CZ_7  and  OH_8
REMARK    6  A    between atoms: C_11  and  OXT_13
REMARK                            x       y       z     vdW  Elec       q    Type
REMARK                         _______ _______ _______ _____ _____    ______ ____
ROOT
ATOM      1  CB  TYR A   1      17.220   7.360   9.576  0.00  0.00    +0.065 C 
ENDROOT
BRANCH   1   2
ATOM      2  CG  TYR A   1      18.228   6.257   9.383  0.00  0.00    -0.045 A 
ATOM      3  CD1 TYR A   1      17.818   4.914   9.348  0.00  0.00    +0.007 A 
ATOM      4  CE1 TYR A   1      18.760   3.893   9.195  0.00  0.00    +0.045 A 
ATOM      5  CZ  TYR A   1      20.120   4.200   9.085  0.00  0.00    +0.117 A 
ATOM      6  CE2 TYR A   1      20.536   5.537   9.130  0.00  0.00    +0.045 A 
ATOM      7  CD2 TYR A   1      19.596   6.561   9.281  0.00  0.00    +0.007 A 
BRANCH   5   8
ATOM      8  OH  TYR A   1      21.048   3.171   8.935  0.00  0.00    -0.507 OA
ATOM      9  HH  TYR A   1      21.845   3.084   9.554  0.00  0.00    +0.292 HD
ENDBRANCH   5   8
ENDBRANCH   1   2
BRANCH   1  10
ATOM     10  CA  TYR A   1      16.016   6.879  10.406  0.00  0.00    +0.165 C 
BRANCH  10  11
ATOM     11  N   TYR A   1      14.784   7.534   9.959  0.00  0.00    -0.318 NA
ATOM     12  H1  TYR A   1      14.136   6.821   9.550  0.00  0.00    +0.119 HD
ATOM     13  H2  TYR A   1      15.022   8.214   9.200  0.00  0.00    +0.119 HD
ENDBRANCH  10  11
BRANCH  10  14
ATOM     14  C   TYR A   1      16.253   7.129  11.872  0.00  0.00    +0.322 C 
ATOM     15  O   TYR A   1      16.319   8.307  12.315  0.00  0.00    -0.249 OA
BRANCH  14  16
ATOM     16  OXT TYR A   1      16.402   6.053  12.742  0.00  0.00    -0.479 OA
ATOM     17  HXT TYR A   1      15.792   5.945  13.544  0.00  0.00    +0.295 HD
ENDBRANCH  14  16
ENDBRANCH  10  14
ENDBRANCH   1  10
TORSDOF 6
ENDMDL
MODEL 2
REMARK VINA RESULT:      -4.8      1.697      2.381
REMARK  Name = peptide_6_CTGLPRIPNK
REMARK  6 active torsions:
REMARK  status: ('A' for Active; 'I' for Inactive)
REMARK    1  A    between atoms: N_1  and  CA_2
REMARK    2  A    between atoms: CA_2  and  CB_3
REMARK    3  A    between atoms: CA_2  and  C_11
REMARK    4  A    between atoms: CB_3  and  CG_4
REMARK    5  A    between atoms: CZ_7  and  OH_8
REMARK    6  A    between atoms: C_11  and  OXT_13
REMARK                            x       y       z     vdW  Elec       q    Type
REMARK                         _______ _______ _______ _____ _____    ______ ____
ROOT
ATOM      1  CB  TYR A   1      17.458   7.485  10.075  0.00  0.00    +0.065 C 
ENDROOT
BRANCH   1   2
ATOM      2  CG  TYR A   1      18.388   6.345   9.748  0.00  0.00    -0.045 A 
ATOM      3  CD1 TYR A   1      19.746   6.589   9.478  0.00  0.00    +0.007 A 
ATOM      4  CE1 TYR A   1      20.599   5.532   9.148  0.00  0.00    +0.045 A 
ATOM      5  CZ  TYR A   1      20.106   4.225   9.076  0.00  0.00    +0.117 A 
ATOM      6  CE2 TYR A   1      18.751   3.978   9.335  0.00  0.00    +0.045 A 
ATOM      7  CD2 TYR A   1      17.895   5.033   9.665  0.00  0.00    +0.007 A 
BRANCH   5   8
ATOM      8  OH  TYR A   1      20.968   3.181   8.745  0.00  0.00    -0.507 OA
ATOM      9  HH  TYR A   1      20.753   2.221   8.986  0.00  0.00    +0.292 HD
ENDBRANCH   5   8
ENDBRANCH   1   2
BRANCH   1  10
ATOM     10  CA  TYR A   1      16.435   7.714   8.949  0.00  0.00    +0.165 C 
BRANCH  10  11
ATOM     11  N   TYR A   1      16.816   8.866   8.129  0.00  0.00    -0.318 NA
ATOM     12  H1  TYR A   1      17.858   8.962   8.121  0.00  0.00    +0.119 HD
ATOM     13  H2  TYR A   1      16.425   9.733   8.566  0.00  0.00    +0.119 HD
ENDBRANCH  10  11
BRANCH  10  14
ATOM     14  C   TYR A   1      15.054   7.898   9.522  0.00  0.00    +0.322 C 
ATOM     15  O   TYR A   1      14.902   8.189  10.738  0.00  0.00    -0.249 OA
BRANCH  14  16
ATOM     16  OXT TYR A   1      13.940   7.743   8.702  0.00  0.00    -0.479 OA
ATOM     17  HXT TYR A   1      13.464   8.549   8.314  0.00  0.00    +0.295 HD
ENDBRANCH  14  16
ENDBRANCH  10  14
ENDBRANCH   1  10
TORSDOF 6
ENDMDL
MODEL 3
REMARK VINA RESULT:      -4.7     20.894     22.396
REMARK  Name = peptide_6_CTGLPRIPNK
REMARK  6 active torsions:
REMARK  status: ('A' for Active; 'I' for Inactive)
REMARK    1  A    between atoms: N_1  and  CA_2
REMARK    2  A    between atoms: CA_2  and  CB_3
REMARK    3  A    between atoms: CA_2  and  C_11
REMARK    4  A    between atoms: CB_3  and  CG_4
REMARK    5  A    between atoms: CZ_7  and  OH_8
REMARK    6  A    between atoms: C_11  and  OXT_13
REMARK                            x       y       z     vdW  Elec       q    Type
REMARK                         _______ _______ _______ _____ _____    ______ ____
ROOT
ATOM      1  CB  TYR A   1       0.929   0.170  24.157  0.00  0.00    +0.065 C 
ENDROOT
BRANCH   1   2
ATOM      2  CG  TYR A   1       2.289  -0.470  24.253  0.00  0.00    -0.045 A 
ATOM      3  CD1 TYR A   1       2.413  -1.854  24.460  0.00  0.00    +0.007 A 
ATOM      4  CE1 TYR A   1       3.676  -2.440  24.575  0.00  0.00    +0.045 A 
ATOM      5  CZ  TYR A   1       4.828  -1.650  24.494  0.00  0.00    +0.117 A 
ATOM      6  CE2 TYR A   1       4.711  -0.268  24.297  0.00  0.00    +0.045 A 
ATOM      7  CD2 TYR A   1       3.448   0.321  24.181  0.00  0.00    +0.007 A 
BRANCH   5   8
ATOM      8  OH  TYR A   1       6.082  -2.248  24.612  0.00  0.00    -0.507 OA
ATOM      9  HH  TYR A   1       6.247  -3.196  24.295  0.00  0.00    +0.292 HD
ENDBRANCH   5   8
ENDBRANCH   1   2
BRANCH   1  10
ATOM     10  CA  TYR A   1       0.684   1.143  25.324  0.00  0.00    +0.165 C 
BRANCH  10  11
ATOM     11  N   TYR A   1       0.161   0.429  26.491  0.00  0.00    -0.318 NA
ATOM     12  H1  TYR A   1       0.310  -0.599  26.370  0.00  0.00    +0.119 HD
ATOM     13  H2  TYR A   1      -0.871   0.592  26.550  0.00  0.00    +0.119 HD
ENDBRANCH  10  11
BRANCH  10  14
ATOM     14  C   TYR A   1      -0.256   2.243  24.905  0.00  0.00    +0.322 C 
ATOM     15  O   TYR A   1      -1.421   2.302  25.380  0.00  0.00    -0.249 OA
BRANCH  14  16
ATOM     16  OXT TYR A   1       0.165   3.198  23.984  0.00  0.00    -0.479 OA
ATOM     17  HXT TYR A   1      -0.487   3.608  23.325  0.00  0.00    +0.295 HD
ENDBRANCH  14  16
ENDBRANCH  10  14
ENDBRANCH   1  10
TORSDOF 6
ENDMDL
MODEL 4
REMARK VINA RESULT:      -4.7     20.541     22.325
REMARK  Name = peptide_6_CTGLPRIPNK
REMARK  6 active torsions:
REMARK  status: ('A' for Active; 'I' for Inactive)
REMARK    1  A    between atoms: N_1  and  CA_2
REMARK    2  A    between atoms: CA_2  and  CB_3
REMARK    3  A    between atoms: CA_2  and  C_11
REMARK    4  A    between atoms: CB_3  and  CG_4
REMARK    5  A    between atoms: CZ_7  and  OH_8
REMARK    6  A    between atoms: C_11  and  OXT_13
REMARK                            x       y       z     vdW  Elec       q    Type
REMARK                         _______ _______ _______ _____ _____    ______ ____
ROOT
ATOM      1  CB  TYR A   1       5.562  -3.733  25.665  0.00  0.00    +0.065 C 
ENDROOT
BRANCH   1   2
ATOM      2  CG  TYR A   1       5.003  -2.640  24.792  0.00  0.00    -0.045 A 
ATOM      3  CD1 TYR A   1       5.442  -1.314  24.943  0.00  0.00    +0.007 A 
ATOM      4  CE1 TYR A   1       4.901  -0.297  24.150  0.00  0.00    +0.045 A 
ATOM      5  CZ  TYR A   1       3.911  -0.592  23.206  0.00  0.00    +0.117 A 
ATOM      6  CE2 TYR A   1       3.463  -1.911  23.058  0.00  0.00    +0.045 A 
ATOM      7  CD2 TYR A   1       4.003  -2.930  23.849  0.00  0.00    +0.007 A 
BRANCH   5   8
ATOM      8  OH  TYR A   1       3.381   0.431  22.423  0.00  0.00    -0.507 OA
ATOM      9  HH  TYR A   1       3.038   0.257  21.486  0.00  0.00    +0.292 HD
ENDBRANCH   5   8
ENDBRANCH   1   2
BRANCH   1  10
ATOM     10  CA  TYR A   1       5.889  -3.213  27.075  0.00  0.00    +0.165 C 
BRANCH  10  11
ATOM     11  N   TYR A   1       7.280  -3.510  27.427  0.00  0.00    -0.318 NA
ATOM     12  H1  TYR A   1       7.686  -4.171  26.724  0.00  0.00    +0.119 HD
ATOM     13  H2  TYR A   1       7.296  -3.991  28.356  0.00  0.00    +0.119 HD
ENDBRANCH  10  11
BRANCH  10  14
ATOM     14  C   TYR A   1       4.944  -3.803  28.088  0.00  0.00    +0.322 C 
ATOM     15  O   TYR A   1       5.382  -4.517  29.029  0.00  0.00    -0.249 OA
BRANCH  14  16
ATOM     16  OXT TYR A   1       3.577  -3.562  27.981  0.00  0.00    -0.479 OA
ATOM     17  HXT TYR A   1       3.063  -3.139  28.745  0.00  0.00    +0.295 HD
ENDBRANCH  14  16
ENDBRANCH  10  14
ENDBRANCH   1  10
TORSDOF 6
ENDMDL
MODEL 5
REMARK VINA RESULT:      -4.6     17.885     19.081
REMARK  Name = peptide_6_CTGLPRIPNK
REMARK  6 active torsions:
REMARK  status: ('A' for Active; 'I' for Inactive)
REMARK    1  A    between atoms: N_1  and  CA_2
REMARK    2  A    between atoms: CA_2  and  CB_3
REMARK    3  A    between atoms: CA_2  and  C_11
REMARK    4  A    between atoms: CB_3  and  CG_4
REMARK    5  A    between atoms: CZ_7  and  OH_8
REMARK    6  A    between atoms: C_11  and  OXT_13
REMARK                            x       y       z     vdW  Elec       q    Type
REMARK                         _______ _______ _______ _____ _____    ______ ____
ROOT
ATOM      1  CB  TYR A   1       5.258   9.734  24.681  0.00  0.00    +0.065 C 
ENDROOT
BRANCH   1   2
ATOM      2  CG  TYR A   1       5.077  10.483  23.387  0.00  0.00    -0.045 A 
ATOM      3  CD1 TYR A   1       3.815  10.550  22.772  0.00  0.00    +0.007 A 
ATOM      4  CE1 TYR A   1       3.657  11.223  21.558  0.00  0.00    +0.045 A 
ATOM      5  CZ  TYR A   1       4.756  11.828  20.940  0.00  0.00    +0.117 A 
ATOM      6  CE2 TYR A   1       6.019  11.757  21.543  0.00  0.00    +0.045 A 
ATOM      7  CD2 TYR A   1       6.180  11.085  22.758  0.00  0.00    +0.007 A 
BRANCH   5   8
ATOM      8  OH  TYR A   1       4.583  12.496  19.729  0.00  0.00    -0.507 OA
ATOM      9  HH  TYR A   1       3.806  13.127  19.579  0.00  0.00    +0.292 HD
ENDBRANCH   5   8
ENDBRANCH   1   2
BRANCH   1  10
ATOM     10  CA  TYR A   1       6.279   8.592  24.529  0.00  0.00    +0.165 C 
BRANCH  10  11
ATOM     11  N   TYR A   1       5.701   7.479  23.772  0.00  0.00    -0.318 NA
ATOM     12  H1  TYR A   1       4.942   7.029  24.334  0.00  0.00    +0.119 HD
ATOM     13  H2  TYR A   1       6.444   6.759  23.615  0.00  0.00    +0.119 HD
ENDBRANCH  10  11
BRANCH  10  14
ATOM     14  C   TYR A   1       6.757   8.129  25.880  0.00  0.00    +0.322 C 
ATOM     15  O   TYR A   1       7.983   8.159  26.168  0.00  0.00    -0.249 OA
BRANCH  14  16
ATOM     16  OXT TYR A   1       5.838   7.662  26.816  0.00  0.00    -0.479 OA
ATOM     17  HXT TYR A   1       6.065   7.646  27.803  0.00  0.00    +0.295 HD
ENDBRANCH  14  16
ENDBRANCH  10  14
ENDBRANCH   1  10
TORSDOF 6
ENDMDL
MODEL 6
REMARK VINA RESULT:      -4.5     20.807     22.248
REMARK  Name = peptide_6_CTGLPRIPNK
REMARK  6 active torsions:
REMARK  status: ('A' for Active; 'I' for Inactive)
REMARK    1  A    between atoms: N_1  and  CA_2
REMARK    2  A    between atoms: CA_2  and  CB_3
REMARK    3  A    between atoms: CA_2  and  C_11
REMARK    4  A    between atoms: CB_3  and  CG_4
REMARK    5  A    between atoms: CZ_7  and  OH_8
REMARK    6  A    between atoms: C_11  and  OXT_13
REMARK                            x       y       z     vdW  Elec       q    Type
REMARK                         _______ _______ _______ _____ _____    ______ ____
ROOT
ATOM      1  CB  TYR A   1       3.953  -3.318  24.971  0.00  0.00    +0.065 C 
ENDROOT
BRANCH   1   2
ATOM      2  CG  TYR A   1       3.583  -1.930  24.516  0.00  0.00    -0.045 A 
ATOM      3  CD1 TYR A   1       2.316  -1.676  23.965  0.00  0.00    +0.007 A 
ATOM      4  CE1 TYR A   1       1.985  -0.393  23.519  0.00  0.00    +0.045 A 
ATOM      5  CZ  TYR A   1       2.918   0.646  23.612  0.00  0.00    +0.117 A 
ATOM      6  CE2 TYR A   1       4.186   0.396  24.152  0.00  0.00    +0.045 A 
ATOM      7  CD2 TYR A   1       4.519  -0.886  24.598  0.00  0.00    +0.007 A 
BRANCH   5   8
ATOM      8  OH  TYR A   1       2.574   1.920  23.163  0.00  0.00    -0.507 OA
ATOM      9  HH  TYR A   1       3.279   2.627  22.989  0.00  0.00    +0.292 HD
ENDBRANCH   5   8
ENDBRANCH   1   2
BRANCH   1  10
ATOM     10  CA  TYR A   1       5.385  -3.360  25.534  0.00  0.00    +0.165 C 
BRANCH  10  11
ATOM     11  N   TYR A   1       6.162  -4.425  24.896  0.00  0.00    -0.318 NA
ATOM     12  H1  TYR A   1       7.182  -4.199  24.954  0.00  0.00    +0.119 HD
ATOM     13  H2  TYR A   1       5.906  -4.466  23.882  0.00  0.00    +0.119 HD
ENDBRANCH  10  11
BRANCH  10  14
ATOM     14  C   TYR A   1       5.357  -3.540  27.029  0.00  0.00    +0.322 C 
ATOM     15  O   TYR A   1       5.369  -4.695  27.533  0.00  0.00    -0.249 OA
BRANCH  14  16
ATOM     16  OXT TYR A   1       5.316  -2.424  27.859  0.00  0.00    -0.479 OA
ATOM     17  HXT TYR A   1       6.025  -1.702  27.796  0.00  0.00    +0.295 HD
ENDBRANCH  14  16
ENDBRANCH  10  14
ENDBRANCH   1  10
TORSDOF 6
ENDMDL
MODEL 7
REMARK VINA RESULT:      -4.5     46.535     48.082
REMARK  Name = peptide_6_CTGLPRIPNK
REMARK  6 active torsions:
REMARK  status: ('A' for Active; 'I' for Inactive)
REMARK    1  A    between atoms: N_1  and  CA_2
REMARK    2  A    between atoms: CA_2  and  CB_3
REMARK    3  A    between atoms: CA_2  and  C_11
REMARK    4  A    between atoms: CB_3  and  CG_4
REMARK    5  A    between atoms: CZ_7  and  OH_8
REMARK    6  A    between atoms: C_11  and  OXT_13
REMARK                            x       y       z     vdW  Elec       q    Type
REMARK                         _______ _______ _______ _____ _____    ______ ____
ROOT
ATOM      1  CB  TYR A   1     -10.954  -2.269  47.120  0.00  0.00    +0.065 C 
ENDROOT
BRANCH   1   2
ATOM      2  CG  TYR A   1     -10.014  -1.132  47.430  0.00  0.00    -0.045 A 
ATOM      3  CD1 TYR A   1      -8.666  -1.386  47.734  0.00  0.00    +0.007 A 
ATOM      4  CE1 TYR A   1      -7.804  -0.331  48.048  0.00  0.00    +0.045 A 
ATOM      5  CZ  TYR A   1      -8.280   0.984  48.069  0.00  0.00    +0.117 A 
ATOM      6  CE2 TYR A   1      -9.625   1.242  47.776  0.00  0.00    +0.045 A 
ATOM      7  CD2 TYR A   1     -10.490   0.189  47.462  0.00  0.00    +0.007 A 
BRANCH   5   8
ATOM      8  OH  TYR A   1      -7.409   2.026  48.384  0.00  0.00    -0.507 OA
ATOM      9  HH  TYR A   1      -6.416   1.866  48.508  0.00  0.00    +0.292 HD
ENDBRANCH   5   8
ENDBRANCH   1   2
BRANCH   1  10
ATOM     10  CA  TYR A   1     -11.377  -3.011  48.400  0.00  0.00    +0.165 C 
BRANCH  10  11
ATOM     11  N   TYR A   1     -10.989  -4.422  48.331  0.00  0.00    -0.318 NA
ATOM     12  H1  TYR A   1     -11.831  -5.009  48.127  0.00  0.00    +0.119 HD
ATOM     13  H2  TYR A   1     -10.622  -4.716  49.266  0.00  0.00    +0.119 HD
ENDBRANCH  10  11
BRANCH  10  14
ATOM     14  C   TYR A   1     -12.859  -2.875  48.624  0.00  0.00    +0.322 C 
ATOM     15  O   TYR A   1     -13.510  -1.964  48.046  0.00  0.00    -0.249 OA
BRANCH  14  16
ATOM     16  OXT TYR A   1     -13.514  -3.758  49.477  0.00  0.00    -0.479 OA
ATOM     17  HXT TYR A   1     -13.233  -3.849  50.446  0.00  0.00    +0.295 HD
ENDBRANCH  14  16
ENDBRANCH  10  14
ENDBRANCH   1  10
TORSDOF 6
ENDMDL
MODEL 8
REMARK VINA RESULT:      -4.4     20.516     21.319
REMARK  Name = peptide_6_CTGLPRIPNK
REMARK  6 active torsions:
REMARK  status: ('A' for Active; 'I' for Inactive)
REMARK    1  A    between atoms: N_1  and  CA_2
REMARK    2  A    between atoms: CA_2  and  CB_3
REMARK    3  A    between atoms: CA_2  and  C_11
REMARK    4  A    between atoms: CB_3  and  CG_4
REMARK    5  A    between atoms: CZ_7  and  OH_8
REMARK    6  A    between atoms: C_11  and  OXT_13
REMARK                            x       y       z     vdW  Elec       q    Type
REMARK                         _______ _______ _______ _____ _____    ______ ____
ROOT
ATOM      1  CB  TYR A   1       3.317  -0.503  22.418  0.00  0.00    +0.065 C 
ENDROOT
BRANCH   1   2
ATOM      2  CG  TYR A   1       4.070  -1.155  23.549  0.00  0.00    -0.045 A 
ATOM      3  CD1 TYR A   1       5.149  -0.494  24.160  0.00  0.00    +0.007 A 
ATOM      4  CE1 TYR A   1       5.863  -1.113  25.190  0.00  0.00    +0.045 A 
ATOM      5  CZ  TYR A   1       5.513  -2.399  25.614  0.00  0.00    +0.117 A 
ATOM      6  CE2 TYR A   1       4.444  -3.066  25.002  0.00  0.00    +0.045 A 
ATOM      7  CD2 TYR A   1       3.728  -2.450  23.972  0.00  0.00    +0.007 A 
BRANCH   5   8
ATOM      8  OH  TYR A   1       6.234  -3.005  26.642  0.00  0.00    -0.507 OA
ATOM      9  HH  TYR A   1       5.792  -3.263  27.517  0.00  0.00    +0.292 HD
ENDBRANCH   5   8
ENDBRANCH   1   2
BRANCH   1  10
ATOM     10  CA  TYR A   1       1.848  -0.248  22.797  0.00  0.00    +0.165 C 
BRANCH  10  11
ATOM     11  N   TYR A   1       1.017  -0.125  21.596  0.00  0.00    -0.318 NA
ATOM     12  H1  TYR A   1       0.563  -1.045  21.389  0.00  0.00    +0.119 HD
ATOM     13  H2  TYR A   1       1.634   0.110  20.784  0.00  0.00    +0.119 HD
ENDBRANCH  10  11
BRANCH  10  14
ATOM     14  C   TYR A   1       1.731   0.983  23.656  0.00  0.00    +0.322 C 
ATOM     15  O   TYR A   1       1.368   0.890  24.859  0.00  0.00    -0.249 OA
BRANCH  14  16
ATOM     16  OXT TYR A   1       2.023   2.233  23.117  0.00  0.00    -0.479 OA
ATOM     17  HXT TYR A   1       2.956   2.453  22.790  0.00  0.00    +0.295 HD
ENDBRANCH  14  16
ENDBRANCH  10  14
ENDBRANCH   1  10
TORSDOF 6
ENDMDL
MODEL 9
REMARK VINA RESULT:      -4.4     19.866     20.703
REMARK  Name = peptide_6_CTGLPRIPNK
REMARK  6 active torsions:
REMARK  status: ('A' for Active; 'I' for Inactive)
REMARK    1  A    between atoms: N_1  and  CA_2
REMARK    2  A    between atoms: CA_2  and  CB_3
REMARK    3  A    between atoms: CA_2  and  C_11
REMARK    4  A    between atoms: CB_3  and  CG_4
REMARK    5  A    between atoms: CZ_7  and  OH_8
REMARK    6  A    between atoms: C_11  and  OXT_13
REMARK                            x       y       z     vdW  Elec       q    Type
REMARK                         _______ _______ _______ _____ _____    ______ ____
ROOT
ATOM      1  CB  TYR A   1      22.878  -5.204  27.512  0.00  0.00    +0.065 C 
ENDROOT
BRANCH   1   2
ATOM      2  CG  TYR A   1      21.520  -4.972  26.902  0.00  0.00    -0.045 A 
ATOM      3  CD1 TYR A   1      20.373  -4.928  27.712  0.00  0.00    +0.007 A 
ATOM      4  CE1 TYR A   1      19.112  -4.739  27.140  0.00  0.00    +0.045 A 
ATOM      5  CZ  TYR A   1      18.982  -4.601  25.754  0.00  0.00    +0.117 A 
ATOM      6  CE2 TYR A   1      20.121  -4.654  24.940  0.00  0.00    +0.045 A 
ATOM      7  CD2 TYR A   1      21.383  -4.842  25.510  0.00  0.00    +0.007 A 
BRANCH   5   8
ATOM      8  OH  TYR A   1      17.718  -4.414  25.197  0.00  0.00    -0.507 OA
ATOM      9  HH  TYR A   1      17.334  -5.068  24.525  0.00  0.00    +0.292 HD
ENDBRANCH   5   8
ENDBRANCH   1   2
BRANCH   1  10
ATOM     10  CA  TYR A   1      23.709  -3.909  27.540  0.00  0.00    +0.165 C 
BRANCH  10  11
ATOM     11  N   TYR A   1      25.129  -4.201  27.331  0.00  0.00    -0.318 NA
ATOM     12  H1  TYR A   1      25.273  -5.237  27.292  0.00  0.00    +0.119 HD
ATOM     13  H2  TYR A   1      25.670  -3.840  28.150  0.00  0.00    +0.119 HD
ENDBRANCH  10  11
BRANCH  10  14
ATOM     14  C   TYR A   1      23.499  -3.177  28.839  0.00  0.00    +0.322 C 
ATOM     15  O   TYR A   1      23.346  -3.816  29.914  0.00  0.00    -0.249 OA
BRANCH  14  16
ATOM     16  OXT TYR A   1      23.471  -1.785  28.851  0.00  0.00    -0.479 OA
ATOM     17  HXT TYR A   1      23.749  -1.253  28.035  0.00  0.00    +0.295 HD
ENDBRANCH  14  16
ENDBRANCH  10  14
ENDBRANCH   1  10
TORSDOF 6
ENDMDL
