MODEL 1
REMARK VINA RESULT:      -4.3      0.000      0.000
REMARK  Name = peptide_43_NHERHLHQGH
REMARK  7 active torsions:
REMARK  status: ('A' for Active; 'I' for Inactive)
REMARK    1  A    between atoms: N_1  and  CA_2
REMARK    2  A    between atoms: CA_2  and  CB_3
REMARK    3  A    between atoms: CA_2  and  C_7
REMARK    4  A    between atoms: CB_3  and  CG_4
REMARK    5  A    between atoms: CG_4  and  CD1_5
REMARK    6  A    between atoms: CG_4  and  CD2_6
REMARK    7  A    between atoms: C_7  and  OXT_9
REMARK                            x       y       z     vdW  Elec       q    Type
REMARK                         _______ _______ _______ _____ _____    ______ ____
ROOT
ATOM      1  CA  LEU A   1      10.111  -4.948  42.499  0.00  0.00    +0.161 C 
ENDROOT
BRANCH   1   2
ATOM      2  N   LEU A   1       9.511  -3.624  42.320  0.00  0.00    -0.318 NA
ATOM      3  H1  LEU A   1       8.497  -3.744  42.090  0.00  0.00    +0.119 HD
ATOM      4  H2  LEU A   1       9.567  -3.088  43.217  0.00  0.00    +0.119 HD
ENDBRANCH   1   2
BRANCH   1   5
ATOM      5  C   LEU A   1       9.578  -5.592  43.752  0.00  0.00    +0.322 C 
ATOM      6  O   LEU A   1       9.852  -6.796  44.008  0.00  0.00    -0.249 OA
BRANCH   5   7
ATOM      7  OXT LEU A   1       8.771  -4.864  44.623  0.00  0.00    -0.479 OA
ATOM      8  HXT LEU A   1       8.392  -5.292  45.460  0.00  0.00    +0.295 HD
ENDBRANCH   5   7
ENDBRANCH   1   5
BRANCH   1   9
ATOM      9  CB  LEU A   1      11.654  -4.846  42.561  0.00  0.00    +0.033 C 
BRANCH   9  10
ATOM     10  CG  LEU A   1      12.220  -3.544  41.942  0.00  0.00    -0.015 C 
ATOM     11  CD1 LEU A   1      12.643  -3.800  40.490  0.00  0.00    +0.007 C 
ATOM     12  CD2 LEU A   1      13.409  -2.985  42.739  0.00  0.00    +0.007 C 
ENDBRANCH   9  10
ENDBRANCH   1   9
TORSDOF 5
ENDMDL
MODEL 2
REMARK VINA RESULT:      -4.2     19.812     21.271
REMARK  Name = peptide_43_NHERHLHQGH
REMARK  7 active torsions:
REMARK  status: ('A' for Active; 'I' for Inactive)
REMARK    1  A    between atoms: N_1  and  CA_2
REMARK    2  A    between atoms: CA_2  and  CB_3
REMARK    3  A    between atoms: CA_2  and  C_7
REMARK    4  A    between atoms: CB_3  and  CG_4
REMARK    5  A    between atoms: CG_4  and  CD1_5
REMARK    6  A    between atoms: CG_4  and  CD2_6
REMARK    7  A    between atoms: C_7  and  OXT_9
REMARK                            x       y       z     vdW  Elec       q    Type
REMARK                         _______ _______ _______ _____ _____    ______ ____
ROOT
ATOM      1  CA  LEU A   1      -8.774   0.706  48.107  0.00  0.00    +0.161 C 
ENDROOT
BRANCH   1   2
ATOM      2  N   LEU A   1      -9.316   1.624  47.103  0.00  0.00    -0.318 NA
ATOM      3  H1  LEU A   1     -10.206   1.222  46.727  0.00  0.00    +0.119 HD
ATOM      4  H2  LEU A   1      -9.550   2.540  47.553  0.00  0.00    +0.119 HD
ENDBRANCH   1   2
BRANCH   1   5
ATOM      5  C   LEU A   1      -7.284   0.896  48.230  0.00  0.00    +0.322 C 
ATOM      6  O   LEU A   1      -6.500   0.194  47.536  0.00  0.00    -0.249 OA
BRANCH   5   7
ATOM      7  OXT LEU A   1      -6.770   1.837  49.118  0.00  0.00    -0.479 OA
ATOM      8  HXT LEU A   1      -7.347   2.597  49.461  0.00  0.00    +0.295 HD
ENDBRANCH   5   7
ENDBRANCH   1   5
BRANCH   1   9
ATOM      9  CB  LEU A   1      -9.100  -0.761  47.741  0.00  0.00    +0.033 C 
BRANCH   9  10
ATOM     10  CG  LEU A   1     -10.505  -0.952  47.118  0.00  0.00    -0.015 C 
ATOM     11  CD1 LEU A   1     -11.558  -1.055  48.229  0.00  0.00    +0.007 C 
ATOM     12  CD2 LEU A   1     -10.581  -2.193  46.215  0.00  0.00    +0.007 C 
ENDBRANCH   9  10
ENDBRANCH   1   9
TORSDOF 5
ENDMDL
MODEL 3
REMARK VINA RESULT:      -4.0     35.486     36.289
REMARK  Name = peptide_43_NHERHLHQGH
REMARK  7 active torsions:
REMARK  status: ('A' for Active; 'I' for Inactive)
REMARK    1  A    between atoms: N_1  and  CA_2
REMARK    2  A    between atoms: CA_2  and  CB_3
REMARK    3  A    between atoms: CA_2  and  C_7
REMARK    4  A    between atoms: CB_3  and  CG_4
REMARK    5  A    between atoms: CG_4  and  CD1_5
REMARK    6  A    between atoms: CG_4  and  CD2_6
REMARK    7  A    between atoms: C_7  and  OXT_9
REMARK                            x       y       z     vdW  Elec       q    Type
REMARK                         _______ _______ _______ _____ _____    ______ ____
ROOT
ATOM      1  CA  LEU A   1      20.455   4.401   9.495  0.00  0.00    +0.161 C 
ENDROOT
BRANCH   1   2
ATOM      2  N   LEU A   1      20.895   3.209   8.766  0.00  0.00    -0.318 NA
ATOM      3  H1  LEU A   1      21.627   2.721   9.333  0.00  0.00    +0.119 HD
ATOM      4  H2  LEU A   1      20.092   2.548   8.653  0.00  0.00    +0.119 HD
ENDBRANCH   1   2
BRANCH   1   5
ATOM      5  C   LEU A   1      18.952   4.502   9.458  0.00  0.00    +0.322 C 
ATOM      6  O   LEU A   1      18.356   5.304  10.227  0.00  0.00    -0.249 OA
BRANCH   5   7
ATOM      7  OXT LEU A   1      18.219   3.704   8.585  0.00  0.00    -0.479 OA
ATOM      8  HXT LEU A   1      17.681   4.116   7.831  0.00  0.00    +0.295 HD
ENDBRANCH   5   7
ENDBRANCH   1   5
BRANCH   1   9
ATOM      9  CB  LEU A   1      21.095   5.676   8.899  0.00  0.00    +0.033 C 
BRANCH   9  10
ATOM     10  CG  LEU A   1      22.418   6.093   9.588  0.00  0.00    -0.015 C 
ATOM     11  CD1 LEU A   1      22.481   7.621   9.713  0.00  0.00    +0.007 C 
ATOM     12  CD2 LEU A   1      23.657   5.582   8.836  0.00  0.00    +0.007 C 
ENDBRANCH   9  10
ENDBRANCH   1   9
TORSDOF 5
ENDMDL
MODEL 4
REMARK VINA RESULT:      -4.0     18.842     19.973
REMARK  Name = peptide_43_NHERHLHQGH
REMARK  7 active torsions:
REMARK  status: ('A' for Active; 'I' for Inactive)
REMARK    1  A    between atoms: N_1  and  CA_2
REMARK    2  A    between atoms: CA_2  and  CB_3
REMARK    3  A    between atoms: CA_2  and  C_7
REMARK    4  A    between atoms: CB_3  and  CG_4
REMARK    5  A    between atoms: CG_4  and  CD1_5
REMARK    6  A    between atoms: CG_4  and  CD2_6
REMARK    7  A    between atoms: C_7  and  OXT_9
REMARK                            x       y       z     vdW  Elec       q    Type
REMARK                         _______ _______ _______ _____ _____    ______ ____
ROOT
ATOM      1  CA  LEU A   1       9.430   5.348  26.487  0.00  0.00    +0.161 C 
ENDROOT
BRANCH   1   2
ATOM      2  N   LEU A   1       9.978   3.989  26.502  0.00  0.00    -0.318 NA
ATOM      3  H1  LEU A   1      10.916   4.012  26.966  0.00  0.00    +0.119 HD
ATOM      4  H2  LEU A   1       9.360   3.367  27.072  0.00  0.00    +0.119 HD
ENDBRANCH   1   2
BRANCH   1   5
ATOM      5  C   LEU A   1       7.941   5.306  26.711  0.00  0.00    +0.322 C 
ATOM      6  O   LEU A   1       7.479   4.850  27.792  0.00  0.00    -0.249 OA
BRANCH   5   7
ATOM      7  OXT LEU A   1       7.072   5.757  25.721  0.00  0.00    -0.479 OA
ATOM      8  HXT LEU A   1       6.224   6.257  25.962  0.00  0.00    +0.295 HD
ENDBRANCH   5   7
ENDBRANCH   1   5
BRANCH   1   9
ATOM      9  CB  LEU A   1       9.753   6.054  25.149  0.00  0.00    +0.033 C 
BRANCH   9  10
ATOM     10  CG  LEU A   1      10.192   7.530  25.311  0.00  0.00    -0.015 C 
ATOM     11  CD1 LEU A   1      10.467   7.832  26.790  0.00  0.00    +0.007 C 
ATOM     12  CD2 LEU A   1       9.146   8.516  24.767  0.00  0.00    +0.007 C 
ENDBRANCH   9  10
ENDBRANCH   1   9
TORSDOF 5
ENDMDL
MODEL 5
REMARK VINA RESULT:      -3.8      2.357      2.919
REMARK  Name = peptide_43_NHERHLHQGH
REMARK  7 active torsions:
REMARK  status: ('A' for Active; 'I' for Inactive)
REMARK    1  A    between atoms: N_1  and  CA_2
REMARK    2  A    between atoms: CA_2  and  CB_3
REMARK    3  A    between atoms: CA_2  and  C_7
REMARK    4  A    between atoms: CB_3  and  CG_4
REMARK    5  A    between atoms: CG_4  and  CD1_5
REMARK    6  A    between atoms: CG_4  and  CD2_6
REMARK    7  A    between atoms: C_7  and  OXT_9
REMARK                            x       y       z     vdW  Elec       q    Type
REMARK                         _______ _______ _______ _____ _____    ______ ____
ROOT
ATOM      1  CA  LEU A   1      12.110  -2.907  41.837  0.00  0.00    +0.161 C 
ENDROOT
BRANCH   1   2
ATOM      2  N   LEU A   1      13.036  -2.542  42.912  0.00  0.00    -0.318 NA
ATOM      3  H1  LEU A   1      12.820  -3.126  43.752  0.00  0.00    +0.119 HD
ATOM      4  H2  LEU A   1      14.017  -2.762  42.620  0.00  0.00    +0.119 HD
ENDBRANCH   1   2
BRANCH   1   5
ATOM      5  C   LEU A   1      11.002  -3.770  42.382  0.00  0.00    +0.322 C 
ATOM      6  O   LEU A   1      11.276  -4.766  43.104  0.00  0.00    -0.249 OA
BRANCH   5   7
ATOM      7  OXT LEU A   1       9.675  -3.478  42.079  0.00  0.00    -0.479 OA
ATOM      8  HXT LEU A   1       9.017  -3.230  42.809  0.00  0.00    +0.295 HD
ENDBRANCH   5   7
ENDBRANCH   1   5
BRANCH   1   9
ATOM      9  CB  LEU A   1      12.855  -3.644  40.698  0.00  0.00    +0.033 C 
BRANCH   9  10
ATOM     10  CG  LEU A   1      14.394  -3.664  40.868  0.00  0.00    -0.015 C 
ATOM     11  CD1 LEU A   1      15.039  -2.682  39.882  0.00  0.00    +0.007 C 
ATOM     12  CD2 LEU A   1      14.987  -5.067  40.668  0.00  0.00    +0.007 C 
ENDBRANCH   9  10
ENDBRANCH   1   9
TORSDOF 5
ENDMDL
MODEL 6
REMARK VINA RESULT:      -3.8      5.747      7.959
REMARK  Name = peptide_43_NHERHLHQGH
REMARK  7 active torsions:
REMARK  status: ('A' for Active; 'I' for Inactive)
REMARK    1  A    between atoms: N_1  and  CA_2
REMARK    2  A    between atoms: CA_2  and  CB_3
REMARK    3  A    between atoms: CA_2  and  C_7
REMARK    4  A    between atoms: CB_3  and  CG_4
REMARK    5  A    between atoms: CG_4  and  CD1_5
REMARK    6  A    between atoms: CG_4  and  CD2_6
REMARK    7  A    between atoms: C_7  and  OXT_9
REMARK                            x       y       z     vdW  Elec       q    Type
REMARK                         _______ _______ _______ _____ _____    ______ ____
ROOT
ATOM      1  CA  LEU A   1       6.766  -6.082  47.469  0.00  0.00    +0.161 C 
ENDROOT
BRANCH   1   2
ATOM      2  N   LEU A   1       7.231  -4.857  48.126  0.00  0.00    -0.318 NA
ATOM      3  H1  LEU A   1       8.013  -4.451  47.562  0.00  0.00    +0.119 HD
ATOM      4  H2  LEU A   1       6.458  -4.152  48.144  0.00  0.00    +0.119 HD
ENDBRANCH   1   2
BRANCH   1   5
ATOM      5  C   LEU A   1       6.945  -5.966  45.978  0.00  0.00    +0.322 C 
ATOM      6  O   LEU A   1       6.005  -6.294  45.203  0.00  0.00    -0.249 OA
BRANCH   5   7
ATOM      7  OXT LEU A   1       8.150  -5.512  45.450  0.00  0.00    -0.479 OA
ATOM      8  HXT LEU A   1       8.188  -5.088  44.531  0.00  0.00    +0.295 HD
ENDBRANCH   5   7
ENDBRANCH   1   5
BRANCH   1   9
ATOM      9  CB  LEU A   1       5.284  -6.359  47.814  0.00  0.00    +0.033 C 
BRANCH   9  10
ATOM     10  CG  LEU A   1       4.512  -5.110  48.305  0.00  0.00    -0.015 C 
ATOM     11  CD1 LEU A   1       4.086  -5.304  49.767  0.00  0.00    +0.007 C 
ATOM     12  CD2 LEU A   1       3.278  -4.806  47.442  0.00  0.00    +0.007 C 
ENDBRANCH   9  10
ENDBRANCH   1   9
TORSDOF 5
ENDMDL
MODEL 7
REMARK VINA RESULT:      -3.7     21.414     22.558
REMARK  Name = peptide_43_NHERHLHQGH
REMARK  7 active torsions:
REMARK  status: ('A' for Active; 'I' for Inactive)
REMARK    1  A    between atoms: N_1  and  CA_2
REMARK    2  A    between atoms: CA_2  and  CB_3
REMARK    3  A    between atoms: CA_2  and  C_7
REMARK    4  A    between atoms: CB_3  and  CG_4
REMARK    5  A    between atoms: CG_4  and  CD1_5
REMARK    6  A    between atoms: CG_4  and  CD2_6
REMARK    7  A    between atoms: C_7  and  OXT_9
REMARK                            x       y       z     vdW  Elec       q    Type
REMARK                         _______ _______ _______ _____ _____    ______ ____
ROOT
ATOM      1  CA  LEU A   1      -9.510  -0.333  47.683  0.00  0.00    +0.161 C 
ENDROOT
BRANCH   1   2
ATOM      2  N   LEU A   1      -8.119  -0.653  48.011  0.00  0.00    -0.318 NA
ATOM      3  H1  LEU A   1      -7.493  -0.168  47.327  0.00  0.00    +0.119 HD
ATOM      4  H2  LEU A   1      -7.888  -0.286  48.963  0.00  0.00    +0.119 HD
ENDBRANCH   1   2
BRANCH   1   5
ATOM      5  C   LEU A   1      -9.801   1.107  48.018  0.00  0.00    +0.322 C 
ATOM      6  O   LEU A   1     -10.884   1.415  48.585  0.00  0.00    -0.249 OA
BRANCH   5   7
ATOM      7  OXT LEU A   1      -8.882   2.100  47.692  0.00  0.00    -0.479 OA
ATOM      8  HXT LEU A   1      -9.058   3.069  47.929  0.00  0.00    +0.295 HD
ENDBRANCH   5   7
ENDBRANCH   1   5
BRANCH   1   9
ATOM      9  CB  LEU A   1     -10.481  -1.268  48.442  0.00  0.00    +0.033 C 
BRANCH   9  10
ATOM     10  CG  LEU A   1     -11.455  -2.041  47.518  0.00  0.00    -0.015 C 
ATOM     11  CD1 LEU A   1     -11.412  -1.447  46.103  0.00  0.00    +0.007 C 
ATOM     12  CD2 LEU A   1     -12.898  -2.025  48.044  0.00  0.00    +0.007 C 
ENDBRANCH   9  10
ENDBRANCH   1   9
TORSDOF 5
ENDMDL
MODEL 8
REMARK VINA RESULT:      -3.7     22.739     23.879
REMARK  Name = peptide_43_NHERHLHQGH
REMARK  7 active torsions:
REMARK  status: ('A' for Active; 'I' for Inactive)
REMARK    1  A    between atoms: N_1  and  CA_2
REMARK    2  A    between atoms: CA_2  and  CB_3
REMARK    3  A    between atoms: CA_2  and  C_7
REMARK    4  A    between atoms: CB_3  and  CG_4
REMARK    5  A    between atoms: CG_4  and  CD1_5
REMARK    6  A    between atoms: CG_4  and  CD2_6
REMARK    7  A    between atoms: C_7  and  OXT_9
REMARK                            x       y       z     vdW  Elec       q    Type
REMARK                         _______ _______ _______ _____ _____    ______ ____
ROOT
ATOM      1  CA  LEU A   1      22.860   8.379  27.727  0.00  0.00    +0.161 C 
ENDROOT
BRANCH   1   2
ATOM      2  N   LEU A   1      23.831   7.628  28.527  0.00  0.00    -0.318 NA
ATOM      3  H1  LEU A   1      23.658   6.605  28.389  0.00  0.00    +0.119 HD
ATOM      4  H2  LEU A   1      24.799   7.832  28.189  0.00  0.00    +0.119 HD
ENDBRANCH   1   2
BRANCH   1   5
ATOM      5  C   LEU A   1      22.102   7.441  26.823  0.00  0.00    +0.322 C 
ATOM      6  O   LEU A   1      21.529   6.427  27.305  0.00  0.00    -0.249 OA
BRANCH   5   7
ATOM      7  OXT LEU A   1      22.044   7.685  25.453  0.00  0.00    -0.479 OA
ATOM      8  HXT LEU A   1      21.762   8.591  25.098  0.00  0.00    +0.295 HD
ENDBRANCH   5   7
ENDBRANCH   1   5
BRANCH   1   9
ATOM      9  CB  LEU A   1      23.567   9.474  26.894  0.00  0.00    +0.033 C 
BRANCH   9  10
ATOM     10  CG  LEU A   1      23.166  10.917  27.289  0.00  0.00    -0.015 C 
ATOM     11  CD1 LEU A   1      24.367  11.637  27.917  0.00  0.00    +0.007 C 
ATOM     12  CD2 LEU A   1      21.976  10.949  28.260  0.00  0.00    +0.007 C 
ENDBRANCH   9  10
ENDBRANCH   1   9
TORSDOF 5
ENDMDL
MODEL 9
REMARK VINA RESULT:      -3.7     20.654     21.450
REMARK  Name = peptide_43_NHERHLHQGH
REMARK  7 active torsions:
REMARK  status: ('A' for Active; 'I' for Inactive)
REMARK    1  A    between atoms: N_1  and  CA_2
REMARK    2  A    between atoms: CA_2  and  CB_3
REMARK    3  A    between atoms: CA_2  and  C_7
REMARK    4  A    between atoms: CB_3  and  CG_4
REMARK    5  A    between atoms: CG_4  and  CD1_5
REMARK    6  A    between atoms: CG_4  and  CD2_6
REMARK    7  A    between atoms: C_7  and  OXT_9
REMARK                            x       y       z     vdW  Elec       q    Type
REMARK                         _______ _______ _______ _____ _____    ______ ____
ROOT
ATOM      1  CA  LEU A   1       0.699   1.027  24.019  0.00  0.00    +0.161 C 
ENDROOT
BRANCH   1   2
ATOM      2  N   LEU A   1       1.191   2.236  23.354  0.00  0.00    -0.318 NA
ATOM      3  H1  LEU A   1       2.237   2.210  23.344  0.00  0.00    +0.119 HD
ATOM      4  H2  LEU A   1       0.867   2.247  22.359  0.00  0.00    +0.119 HD
ENDBRANCH   1   2
BRANCH   1   5
ATOM      5  C   LEU A   1      -0.034   1.395  25.283  0.00  0.00    +0.322 C 
ATOM      6  O   LEU A   1       0.261   0.828  26.370  0.00  0.00    -0.249 OA
BRANCH   5   7
ATOM      7  OXT LEU A   1      -1.045   2.352  25.252  0.00  0.00    -0.479 OA
ATOM      8  HXT LEU A   1      -2.005   2.086  25.067  0.00  0.00    +0.295 HD
ENDBRANCH   5   7
ENDBRANCH   1   5
BRANCH   1   9
ATOM      9  CB  LEU A   1       1.866   0.063  24.336  0.00  0.00    +0.033 C 
BRANCH   9  10
ATOM     10  CG  LEU A   1       3.171   0.386  23.567  0.00  0.00    -0.015 C 
ATOM     11  CD1 LEU A   1       3.237  -0.450  22.281  0.00  0.00    +0.007 C 
ATOM     12  CD2 LEU A   1       4.428   0.136  24.413  0.00  0.00    +0.007 C 
ENDBRANCH   9  10
ENDBRANCH   1   9
TORSDOF 5
ENDMDL
