MODEL 1
REMARK VINA RESULT:      -4.2      0.000      0.000
REMARK  Name = peptide_46_DKEGSVSKNG
REMARK  7 active torsions:
REMARK  status: ('A' for Active; 'I' for Inactive)
REMARK    1  A    between atoms: N_1  and  CA_2
REMARK    2  A    between atoms: CA_2  and  CB_3
REMARK    3  A    between atoms: CA_2  and  C_7
REMARK    4  A    between atoms: CB_3  and  CG2_4
REMARK    5  A    between atoms: CB_3  and  CG1_5
REMARK    6  A    between atoms: CG1_5  and  CD1_6
REMARK    7  A    between atoms: C_7  and  OXT_9
REMARK                            x       y       z     vdW  Elec       q    Type
REMARK                         _______ _______ _______ _____ _____    ______ ____
ROOT
ATOM      1  CA  ILE A   1      20.730   4.409   8.632  0.00  0.00    +0.164 C 
ENDROOT
BRANCH   1   2
ATOM      2  N   ILE A   1      21.063   3.028   8.996  0.00  0.00    -0.318 NA
ATOM      3  H1  ILE A   1      21.506   3.024   9.945  0.00  0.00    +0.119 HD
ATOM      4  H2  ILE A   1      21.812   2.688   8.353  0.00  0.00    +0.119 HD
ENDBRANCH   1   2
BRANCH   1   5
ATOM      5  CB  ILE A   1      19.595   4.975   9.542  0.00  0.00    +0.013 C 
ATOM      6  CG2 ILE A   1      19.401   6.483   9.285  0.00  0.00    +0.009 C 
BRANCH   5   7
ATOM      7  CG1 ILE A   1      18.240   4.240   9.331  0.00  0.00    +0.002 C 
ATOM      8  CD1 ILE A   1      17.044   5.195   9.344  0.00  0.00    +0.004 C 
ENDBRANCH   5   7
ENDBRANCH   1   5
BRANCH   1   9
ATOM      9  C   ILE A   1      21.971   5.258   8.746  0.00  0.00    +0.322 C 
ATOM     10  O   ILE A   1      22.590   5.329   9.841  0.00  0.00    -0.249 OA
BRANCH   9  11
ATOM     11  OXT ILE A   1      22.437   5.961   7.639  0.00  0.00    -0.479 OA
ATOM     12  HXT ILE A   1      23.018   5.508   6.943  0.00  0.00    +0.295 HD
ENDBRANCH   9  11
ENDBRANCH   1   9
TORSDOF 5
ENDMDL
MODEL 2
REMARK VINA RESULT:      -4.1     35.732     36.486
REMARK  Name = peptide_46_DKEGSVSKNG
REMARK  7 active torsions:
REMARK  status: ('A' for Active; 'I' for Inactive)
REMARK    1  A    between atoms: N_1  and  CA_2
REMARK    2  A    between atoms: CA_2  and  CB_3
REMARK    3  A    between atoms: CA_2  and  C_7
REMARK    4  A    between atoms: CB_3  and  CG2_4
REMARK    5  A    between atoms: CB_3  and  CG1_5
REMARK    6  A    between atoms: CG1_5  and  CD1_6
REMARK    7  A    between atoms: C_7  and  OXT_9
REMARK                            x       y       z     vdW  Elec       q    Type
REMARK                         _______ _______ _______ _____ _____    ______ ____
ROOT
ATOM      1  CA  ILE A   1      10.328  -4.708  42.451  0.00  0.00    +0.164 C 
ENDROOT
BRANCH   1   2
ATOM      2  N   ILE A   1       9.620  -3.497  42.024  0.00  0.00    -0.318 NA
ATOM      3  H1  ILE A   1       9.712  -3.398  40.986  0.00  0.00    +0.119 HD
ATOM      4  H2  ILE A   1      10.119  -2.666  42.414  0.00  0.00    +0.119 HD
ENDBRANCH   1   2
BRANCH   1   5
ATOM      5  CB  ILE A   1      11.816  -4.398  42.804  0.00  0.00    +0.013 C 
ATOM      6  CG2 ILE A   1      12.724  -5.577  42.400  0.00  0.00    +0.009 C 
BRANCH   5   7
ATOM      7  CG1 ILE A   1      12.332  -3.097  42.123  0.00  0.00    +0.002 C 
ATOM      8  CD1 ILE A   1      13.064  -3.372  40.808  0.00  0.00    +0.004 C 
ENDBRANCH   5   7
ENDBRANCH   1   5
BRANCH   1   9
ATOM      9  C   ILE A   1       9.615  -5.299  43.641  0.00  0.00    +0.322 C 
ATOM     10  O   ILE A   1       9.875  -6.474  44.015  0.00  0.00    -0.249 OA
BRANCH   9  11
ATOM     11  OXT ILE A   1       8.670  -4.544  44.331  0.00  0.00    -0.479 OA
ATOM     12  HXT ILE A   1       8.833  -3.564  44.529  0.00  0.00    +0.295 HD
ENDBRANCH   9  11
ENDBRANCH   1   9
TORSDOF 5
ENDMDL
MODEL 3
REMARK VINA RESULT:      -4.0     47.544     48.664
REMARK  Name = peptide_46_DKEGSVSKNG
REMARK  7 active torsions:
REMARK  status: ('A' for Active; 'I' for Inactive)
REMARK    1  A    between atoms: N_1  and  CA_2
REMARK    2  A    between atoms: CA_2  and  CB_3
REMARK    3  A    between atoms: CA_2  and  C_7
REMARK    4  A    between atoms: CB_3  and  CG2_4
REMARK    5  A    between atoms: CB_3  and  CG1_5
REMARK    6  A    between atoms: CG1_5  and  CD1_6
REMARK    7  A    between atoms: C_7  and  OXT_9
REMARK                            x       y       z     vdW  Elec       q    Type
REMARK                         _______ _______ _______ _____ _____    ______ ____
ROOT
ATOM      1  CA  ILE A   1      -7.667  -0.068  47.797  0.00  0.00    +0.164 C 
ENDROOT
BRANCH   1   2
ATOM      2  N   ILE A   1      -7.286  -1.394  48.294  0.00  0.00    -0.318 NA
ATOM      3  H1  ILE A   1      -8.128  -2.016  48.283  0.00  0.00    +0.119 HD
ATOM      4  H2  ILE A   1      -7.033  -1.309  49.304  0.00  0.00    +0.119 HD
ENDBRANCH   1   2
BRANCH   1   5
ATOM      5  CB  ILE A   1      -9.050   0.375  48.370  0.00  0.00    +0.013 C 
ATOM      6  CG2 ILE A   1      -9.634   1.531  47.535  0.00  0.00    +0.009 C 
BRANCH   5   7
ATOM      7  CG1 ILE A   1     -10.076  -0.794  48.419  0.00  0.00    +0.002 C 
ATOM      8  CD1 ILE A   1     -11.455  -0.387  47.895  0.00  0.00    +0.004 C 
ENDBRANCH   5   7
ENDBRANCH   1   5
BRANCH   1   9
ATOM      9  C   ILE A   1      -6.596   0.924  48.175  0.00  0.00    +0.322 C 
ATOM     10  O   ILE A   1      -5.505   0.947  47.546  0.00  0.00    -0.249 OA
BRANCH   9  11
ATOM     11  OXT ILE A   1      -6.814   1.818  49.220  0.00  0.00    -0.479 OA
ATOM     12  HXT ILE A   1      -6.081   2.448  49.525  0.00  0.00    +0.295 HD
ENDBRANCH   9  11
ENDBRANCH   1   9
TORSDOF 5
ENDMDL
MODEL 4
REMARK VINA RESULT:      -3.9      3.419      4.007
REMARK  Name = peptide_46_DKEGSVSKNG
REMARK  7 active torsions:
REMARK  status: ('A' for Active; 'I' for Inactive)
REMARK    1  A    between atoms: N_1  and  CA_2
REMARK    2  A    between atoms: CA_2  and  CB_3
REMARK    3  A    between atoms: CA_2  and  C_7
REMARK    4  A    between atoms: CB_3  and  CG2_4
REMARK    5  A    between atoms: CB_3  and  CG1_5
REMARK    6  A    between atoms: CG1_5  and  CD1_6
REMARK    7  A    between atoms: C_7  and  OXT_9
REMARK                            x       y       z     vdW  Elec       q    Type
REMARK                         _______ _______ _______ _____ _____    ______ ____
ROOT
ATOM      1  CA  ILE A   1      18.201   6.039   9.092  0.00  0.00    +0.164 C 
ENDROOT
BRANCH   1   2
ATOM      2  N   ILE A   1      17.094   6.510   8.253  0.00  0.00    -0.318 NA
ATOM      3  H1  ILE A   1      16.277   6.741   8.866  0.00  0.00    +0.119 HD
ATOM      4  H2  ILE A   1      16.764   5.713   7.663  0.00  0.00    +0.119 HD
ENDBRANCH   1   2
BRANCH   1   5
ATOM      5  CB  ILE A   1      18.176   6.722  10.495  0.00  0.00    +0.013 C 
ATOM      6  CG2 ILE A   1      18.669   8.179  10.394  0.00  0.00    +0.009 C 
BRANCH   5   7
ATOM      7  CG1 ILE A   1      16.761   6.703  11.142  0.00  0.00    +0.002 C 
ATOM      8  CD1 ILE A   1      16.786   7.094  12.622  0.00  0.00    +0.004 C 
ENDBRANCH   5   7
ENDBRANCH   1   5
BRANCH   1   9
ATOM      9  C   ILE A   1      18.107   4.541   9.232  0.00  0.00    +0.322 C 
ATOM     10  O   ILE A   1      17.247   3.897   8.573  0.00  0.00    -0.249 OA
BRANCH   9  11
ATOM     11  OXT ILE A   1      18.973   3.866  10.087  0.00  0.00    -0.479 OA
ATOM     12  HXT ILE A   1      18.618   3.218  10.781  0.00  0.00    +0.295 HD
ENDBRANCH   9  11
ENDBRANCH   1   9
TORSDOF 5
ENDMDL
MODEL 5
REMARK VINA RESULT:      -3.9     24.888     25.781
REMARK  Name = peptide_46_DKEGSVSKNG
REMARK  7 active torsions:
REMARK  status: ('A' for Active; 'I' for Inactive)
REMARK    1  A    between atoms: N_1  and  CA_2
REMARK    2  A    between atoms: CA_2  and  CB_3
REMARK    3  A    between atoms: CA_2  and  C_7
REMARK    4  A    between atoms: CB_3  and  CG2_4
REMARK    5  A    between atoms: CB_3  and  CG1_5
REMARK    6  A    between atoms: CG1_5  and  CD1_6
REMARK    7  A    between atoms: C_7  and  OXT_9
REMARK                            x       y       z     vdW  Elec       q    Type
REMARK                         _______ _______ _______ _____ _____    ______ ____
ROOT
ATOM      1  CA  ILE A   1       5.738  -2.656  28.318  0.00  0.00    +0.164 C 
ENDROOT
BRANCH   1   2
ATOM      2  N   ILE A   1       5.810  -1.900  27.064  0.00  0.00    -0.318 NA
ATOM      3  H1  ILE A   1       6.190  -2.523  26.313  0.00  0.00    +0.119 HD
ATOM      4  H2  ILE A   1       6.527  -1.147  27.170  0.00  0.00    +0.119 HD
ENDBRANCH   1   2
BRANCH   1   5
ATOM      5  CB  ILE A   1       5.258  -4.119  28.070  0.00  0.00    +0.013 C 
ATOM      6  CG2 ILE A   1       5.017  -4.842  29.410  0.00  0.00    +0.009 C 
BRANCH   5   7
ATOM      7  CG1 ILE A   1       3.962  -4.184  27.211  0.00  0.00    +0.002 C 
ATOM      8  CD1 ILE A   1       2.692  -4.210  28.064  0.00  0.00    +0.004 C 
ENDBRANCH   5   7
ENDBRANCH   1   5
BRANCH   1   9
ATOM      9  C   ILE A   1       7.097  -2.649  28.971  0.00  0.00    +0.322 C 
ATOM     10  O   ILE A   1       8.119  -2.978  28.311  0.00  0.00    -0.249 OA
BRANCH   9  11
ATOM     11  OXT ILE A   1       7.226  -2.274  30.306  0.00  0.00    -0.479 OA
ATOM     12  HXT ILE A   1       8.052  -2.525  30.838  0.00  0.00    +0.295 HD
ENDBRANCH   9  11
ENDBRANCH   1   9
TORSDOF 5
ENDMDL
MODEL 6
REMARK VINA RESULT:      -3.9     22.743     23.746
REMARK  Name = peptide_46_DKEGSVSKNG
REMARK  7 active torsions:
REMARK  status: ('A' for Active; 'I' for Inactive)
REMARK    1  A    between atoms: N_1  and  CA_2
REMARK    2  A    between atoms: CA_2  and  CB_3
REMARK    3  A    between atoms: CA_2  and  C_7
REMARK    4  A    between atoms: CB_3  and  CG2_4
REMARK    5  A    between atoms: CB_3  and  CG1_5
REMARK    6  A    between atoms: CG1_5  and  CD1_6
REMARK    7  A    between atoms: C_7  and  OXT_9
REMARK                            x       y       z     vdW  Elec       q    Type
REMARK                         _______ _______ _______ _____ _____    ______ ____
ROOT
ATOM      1  CA  ILE A   1       5.138  -2.962  26.079  0.00  0.00    +0.164 C 
ENDROOT
BRANCH   1   2
ATOM      2  N   ILE A   1       5.817  -2.045  27.001  0.00  0.00    -0.318 NA
ATOM      3  H1  ILE A   1       6.016  -1.147  26.501  0.00  0.00    +0.119 HD
ATOM      4  H2  ILE A   1       6.759  -2.437  27.225  0.00  0.00    +0.119 HD
ENDBRANCH   1   2
BRANCH   1   5
ATOM      5  CB  ILE A   1       5.253  -2.468  24.603  0.00  0.00    +0.013 C 
ATOM      6  CG2 ILE A   1       3.920  -2.680  23.859  0.00  0.00    +0.009 C 
BRANCH   5   7
ATOM      7  CG1 ILE A   1       5.663  -0.970  24.507  0.00  0.00    +0.002 C 
ATOM      8  CD1 ILE A   1       4.461  -0.043  24.309  0.00  0.00    +0.004 C 
ENDBRANCH   5   7
ENDBRANCH   1   5
BRANCH   1   9
ATOM      9  C   ILE A   1       5.741  -4.336  26.225  0.00  0.00    +0.322 C 
ATOM     10  O   ILE A   1       5.367  -5.096  27.159  0.00  0.00    -0.249 OA
BRANCH   9  11
ATOM     11  OXT ILE A   1       6.710  -4.771  25.324  0.00  0.00    -0.479 OA
ATOM     12  HXT ILE A   1       6.453  -5.073  24.391  0.00  0.00    +0.295 HD
ENDBRANCH   9  11
ENDBRANCH   1   9
TORSDOF 5
ENDMDL
MODEL 7
REMARK VINA RESULT:      -3.9     20.431     21.446
REMARK  Name = peptide_46_DKEGSVSKNG
REMARK  7 active torsions:
REMARK  status: ('A' for Active; 'I' for Inactive)
REMARK    1  A    between atoms: N_1  and  CA_2
REMARK    2  A    between atoms: CA_2  and  CB_3
REMARK    3  A    between atoms: CA_2  and  C_7
REMARK    4  A    between atoms: CB_3  and  CG2_4
REMARK    5  A    between atoms: CB_3  and  CG1_5
REMARK    6  A    between atoms: CG1_5  and  CD1_6
REMARK    7  A    between atoms: C_7  and  OXT_9
REMARK                            x       y       z     vdW  Elec       q    Type
REMARK                         _______ _______ _______ _____ _____    ______ ____
ROOT
ATOM      1  CA  ILE A   1       7.185   7.529  25.902  0.00  0.00    +0.164 C 
ENDROOT
BRANCH   1   2
ATOM      2  N   ILE A   1       6.083   7.512  26.869  0.00  0.00    -0.318 NA
ATOM      3  H1  ILE A   1       6.028   8.446  27.339  0.00  0.00    +0.119 HD
ATOM      4  H2  ILE A   1       6.325   6.845  27.636  0.00  0.00    +0.119 HD
ENDBRANCH   1   2
BRANCH   1   5
ATOM      5  CB  ILE A   1       7.820   6.112  25.744  0.00  0.00    +0.013 C 
ATOM      6  CG2 ILE A   1       9.355   6.219  25.637  0.00  0.00    +0.009 C 
BRANCH   5   7
ATOM      7  CG1 ILE A   1       7.452   5.159  26.918  0.00  0.00    +0.002 C 
ATOM      8  CD1 ILE A   1       8.657   4.368  27.433  0.00  0.00    +0.004 C 
ENDBRANCH   5   7
ENDBRANCH   1   5
BRANCH   1   9
ATOM      9  C   ILE A   1       6.665   8.026  24.577  0.00  0.00    +0.322 C 
ATOM     10  O   ILE A   1       5.454   7.863  24.272  0.00  0.00    -0.249 OA
BRANCH   9  11
ATOM     11  OXT ILE A   1       7.524   8.669  23.690  0.00  0.00    -0.479 OA
ATOM     12  HXT ILE A   1       8.099   8.138  23.046  0.00  0.00    +0.295 HD
ENDBRANCH   9  11
ENDBRANCH   1   9
TORSDOF 5
ENDMDL
MODEL 8
REMARK VINA RESULT:      -3.8      1.746      2.368
REMARK  Name = peptide_46_DKEGSVSKNG
REMARK  7 active torsions:
REMARK  status: ('A' for Active; 'I' for Inactive)
REMARK    1  A    between atoms: N_1  and  CA_2
REMARK    2  A    between atoms: CA_2  and  CB_3
REMARK    3  A    between atoms: CA_2  and  C_7
REMARK    4  A    between atoms: CB_3  and  CG2_4
REMARK    5  A    between atoms: CB_3  and  CG1_5
REMARK    6  A    between atoms: CG1_5  and  CD1_6
REMARK    7  A    between atoms: C_7  and  OXT_9
REMARK                            x       y       z     vdW  Elec       q    Type
REMARK                         _______ _______ _______ _____ _____    ______ ____
ROOT
ATOM      1  CA  ILE A   1      19.946   5.269   9.468  0.00  0.00    +0.164 C 
ENDROOT
BRANCH   1   2
ATOM      2  N   ILE A   1      20.344   6.679   9.515  0.00  0.00    -0.318 NA
ATOM      3  H1  ILE A   1      20.829   6.865  10.425  0.00  0.00    +0.119 HD
ATOM      4  H2  ILE A   1      19.480   7.266   9.552  0.00  0.00    +0.119 HD
ENDBRANCH   1   2
BRANCH   1   5
ATOM      5  CB  ILE A   1      18.569   5.093   8.754  0.00  0.00    +0.013 C 
ATOM      6  CG2 ILE A   1      17.937   3.738   9.128  0.00  0.00    +0.009 C 
BRANCH   5   7
ATOM      7  CG1 ILE A   1      17.571   6.237   9.094  0.00  0.00    +0.002 C 
ATOM      8  CD1 ILE A   1      16.254   5.715   9.674  0.00  0.00    +0.004 C 
ENDBRANCH   5   7
ENDBRANCH   1   5
BRANCH   1   9
ATOM      9  C   ILE A   1      21.016   4.482   8.754  0.00  0.00    +0.322 C 
ATOM     10  O   ILE A   1      21.791   5.058   7.945  0.00  0.00    -0.249 OA
BRANCH   9  11
ATOM     11  OXT ILE A   1      21.151   3.117   8.992  0.00  0.00    -0.479 OA
ATOM     12  HXT ILE A   1      21.762   2.548   8.417  0.00  0.00    +0.295 HD
ENDBRANCH   9  11
ENDBRANCH   1   9
TORSDOF 5
ENDMDL
MODEL 9
REMARK VINA RESULT:      -3.8     19.975     21.002
REMARK  Name = peptide_46_DKEGSVSKNG
REMARK  7 active torsions:
REMARK  status: ('A' for Active; 'I' for Inactive)
REMARK    1  A    between atoms: N_1  and  CA_2
REMARK    2  A    between atoms: CA_2  and  CB_3
REMARK    3  A    between atoms: CA_2  and  C_7
REMARK    4  A    between atoms: CB_3  and  CG2_4
REMARK    5  A    between atoms: CB_3  and  CG1_5
REMARK    6  A    between atoms: CG1_5  and  CD1_6
REMARK    7  A    between atoms: C_7  and  OXT_9
REMARK                            x       y       z     vdW  Elec       q    Type
REMARK                         _______ _______ _______ _____ _____    ______ ____
ROOT
ATOM      1  CA  ILE A   1       8.265   8.277  25.602  0.00  0.00    +0.164 C 
ENDROOT
BRANCH   1   2
ATOM      2  N   ILE A   1       8.405   9.064  26.831  0.00  0.00    -0.318 NA
ATOM      3  H1  ILE A   1       7.475   9.479  27.077  0.00  0.00    +0.119 HD
ATOM      4  H2  ILE A   1       9.016   9.888  26.629  0.00  0.00    +0.119 HD
ENDBRANCH   1   2
BRANCH   1   5
ATOM      5  CB  ILE A   1       9.538   7.413  25.335  0.00  0.00    +0.013 C 
ATOM      6  CG2 ILE A   1      10.760   8.318  25.082  0.00  0.00    +0.009 C 
BRANCH   5   7
ATOM      7  CG1 ILE A   1       9.853   6.440  26.508  0.00  0.00    +0.002 C 
ATOM      8  CD1 ILE A   1       9.742   4.970  26.097  0.00  0.00    +0.004 C 
ENDBRANCH   5   7
ENDBRANCH   1   5
BRANCH   1   9
ATOM      9  C   ILE A   1       7.046   7.399  25.720  0.00  0.00    +0.322 C 
ATOM     10  O   ILE A   1       6.361   7.406  26.777  0.00  0.00    -0.249 OA
BRANCH   9  11
ATOM     11  OXT ILE A   1       6.672   6.580  24.657  0.00  0.00    -0.479 OA
ATOM     12  HXT ILE A   1       7.318   5.899  24.274  0.00  0.00    +0.295 HD
ENDBRANCH   9  11
ENDBRANCH   1   9
TORSDOF 5
ENDMDL
