MODEL 1
REMARK VINA RESULT:      -4.8      0.000      0.000
REMARK  Name = peptide_16_EECPCKRNFQ
REMARK  5 active torsions:
REMARK  status: ('A' for Active; 'I' for Inactive)
REMARK    1  A    between atoms: N_1  and  CA_2
REMARK    2  A    between atoms: CA_2  and  CB_3
REMARK    3  A    between atoms: CA_2  and  C_10
REMARK    4  A    between atoms: CB_3  and  CG_4
REMARK    5  A    between atoms: C_10  and  OXT_12
REMARK                            x       y       z     vdW  Elec       q    Type
REMARK                         _______ _______ _______ _____ _____    ______ ____
ROOT
ATOM      1  CA  PHE A   1       9.697  -5.831  42.872  0.00  0.00    +0.165 C 
ENDROOT
BRANCH   1   2
ATOM      2  N   PHE A   1       8.809  -6.239  41.781  0.00  0.00    -0.318 NA
ATOM      3  H1  PHE A   1       7.824  -6.231  42.132  0.00  0.00    +0.119 HD
ATOM      4  H2  PHE A   1       9.031  -7.222  41.500  0.00  0.00    +0.119 HD
ENDBRANCH   1   2
BRANCH   1   5
ATOM      5  C   PHE A   1       8.976  -5.979  44.183  0.00  0.00    +0.322 C 
ATOM      6  O   PHE A   1       8.621  -7.121  44.582  0.00  0.00    -0.249 OA
BRANCH   5   7
ATOM      7  OXT PHE A   1       8.713  -4.859  44.966  0.00  0.00    -0.479 OA
ATOM      8  HXT PHE A   1       8.407  -3.990  44.542  0.00  0.00    +0.295 HD
ENDBRANCH   5   7
ENDBRANCH   1   5
BRANCH   1   9
ATOM      9  CB  PHE A   1      10.192  -4.383  42.667  0.00  0.00    +0.065 C 
BRANCH   9  10
ATOM     10  CG  PHE A   1      11.620  -4.346  42.183  0.00  0.00    -0.045 A 
ATOM     11  CD1 PHE A   1      12.002  -3.440  41.178  0.00  0.00    +0.003 A 
ATOM     12  CE1 PHE A   1      13.318  -3.425  40.707  0.00  0.00    +0.000 A 
ATOM     13  CZ  PHE A   1      14.259  -4.317  41.229  0.00  0.00    +0.000 A 
ATOM     14  CE2 PHE A   1      13.885  -5.227  42.221  0.00  0.00    +0.000 A 
ATOM     15  CD2 PHE A   1      12.570  -5.245  42.695  0.00  0.00    +0.003 A 
ENDBRANCH   9  10
ENDBRANCH   1   9
TORSDOF 5
ENDMDL
MODEL 2
REMARK VINA RESULT:      -4.8     34.562     35.770
REMARK  Name = peptide_16_EECPCKRNFQ
REMARK  5 active torsions:
REMARK  status: ('A' for Active; 'I' for Inactive)
REMARK    1  A    between atoms: N_1  and  CA_2
REMARK    2  A    between atoms: CA_2  and  CB_3
REMARK    3  A    between atoms: CA_2  and  C_10
REMARK    4  A    between atoms: CB_3  and  CG_4
REMARK    5  A    between atoms: C_10  and  OXT_12
REMARK                            x       y       z     vdW  Elec       q    Type
REMARK                         _______ _______ _______ _____ _____    ______ ____
ROOT
ATOM      1  CA  PHE A   1      19.371   4.735   9.052  0.00  0.00    +0.165 C 
ENDROOT
BRANCH   1   2
ATOM      2  N   PHE A   1      18.835   3.852  10.090  0.00  0.00    -0.318 NA
ATOM      3  H1  PHE A   1      18.591   2.933   9.654  0.00  0.00    +0.119 HD
ATOM      4  H2  PHE A   1      17.951   4.259  10.473  0.00  0.00    +0.119 HD
ENDBRANCH   1   2
BRANCH   1   5
ATOM      5  C   PHE A   1      20.761   4.290   8.689  0.00  0.00    +0.322 C 
ATOM      6  O   PHE A   1      21.562   5.099   8.148  0.00  0.00    -0.249 OA
BRANCH   5   7
ATOM      7  OXT PHE A   1      21.170   2.988   8.963  0.00  0.00    -0.479 OA
ATOM      8  HXT PHE A   1      20.625   2.195   8.646  0.00  0.00    +0.295 HD
ENDBRANCH   5   7
ENDBRANCH   1   5
BRANCH   1   9
ATOM      9  CB  PHE A   1      19.359   6.206   9.519  0.00  0.00    +0.065 C 
BRANCH   9  10
ATOM     10  CG  PHE A   1      17.971   6.660   9.896  0.00  0.00    -0.045 A 
ATOM     11  CD1 PHE A   1      16.930   6.606   8.954  0.00  0.00    +0.003 A 
ATOM     12  CE1 PHE A   1      15.650   7.055   9.294  0.00  0.00    +0.000 A 
ATOM     13  CZ  PHE A   1      15.402   7.566  10.571  0.00  0.00    +0.000 A 
ATOM     14  CE2 PHE A   1      16.435   7.632  11.510  0.00  0.00    +0.000 A 
ATOM     15  CD2 PHE A   1      17.716   7.184  11.175  0.00  0.00    +0.003 A 
ENDBRANCH   9  10
ENDBRANCH   1   9
TORSDOF 5
ENDMDL
MODEL 3
REMARK VINA RESULT:      -4.7     34.952     35.833
REMARK  Name = peptide_16_EECPCKRNFQ
REMARK  5 active torsions:
REMARK  status: ('A' for Active; 'I' for Inactive)
REMARK    1  A    between atoms: N_1  and  CA_2
REMARK    2  A    between atoms: CA_2  and  CB_3
REMARK    3  A    between atoms: CA_2  and  C_10
REMARK    4  A    between atoms: CB_3  and  CG_4
REMARK    5  A    between atoms: C_10  and  OXT_12
REMARK                            x       y       z     vdW  Elec       q    Type
REMARK                         _______ _______ _______ _____ _____    ______ ____
ROOT
ATOM      1  CA  PHE A   1      17.281   6.350  10.182  0.00  0.00    +0.165 C 
ENDROOT
BRANCH   1   2
ATOM      2  N   PHE A   1      16.741   5.985  11.494  0.00  0.00    -0.318 NA
ATOM      3  H1  PHE A   1      17.311   5.199  11.883  0.00  0.00    +0.119 HD
ATOM      4  H2  PHE A   1      15.762   5.632  11.383  0.00  0.00    +0.119 HD
ENDBRANCH   1   2
BRANCH   1   5
ATOM      5  C   PHE A   1      16.197   6.990   9.359  0.00  0.00    +0.322 C 
ATOM      6  O   PHE A   1      14.994   6.654   9.528  0.00  0.00    -0.249 OA
BRANCH   5   7
ATOM      7  OXT PHE A   1      16.519   7.965   8.419  0.00  0.00    -0.479 OA
ATOM      8  HXT PHE A   1      15.908   8.150   7.632  0.00  0.00    +0.295 HD
ENDBRANCH   5   7
ENDBRANCH   1   5
BRANCH   1   9
ATOM      9  CB  PHE A   1      17.873   5.118   9.467  0.00  0.00    +0.065 C 
BRANCH   9  10
ATOM     10  CG  PHE A   1      19.366   5.237   9.295  0.00  0.00    -0.045 A 
ATOM     11  CD1 PHE A   1      20.159   4.082   9.182  0.00  0.00    +0.003 A 
ATOM     12  CE1 PHE A   1      21.547   4.191   9.053  0.00  0.00    +0.000 A 
ATOM     13  CZ  PHE A   1      22.153   5.451   9.042  0.00  0.00    +0.000 A 
ATOM     14  CE2 PHE A   1      21.373   6.603   9.165  0.00  0.00    +0.000 A 
ATOM     15  CD2 PHE A   1      19.985   6.499   9.294  0.00  0.00    +0.003 A 
ENDBRANCH   9  10
ENDBRANCH   1   9
TORSDOF 5
ENDMDL
MODEL 4
REMARK VINA RESULT:      -4.7     19.277     20.928
REMARK  Name = peptide_16_EECPCKRNFQ
REMARK  5 active torsions:
REMARK  status: ('A' for Active; 'I' for Inactive)
REMARK    1  A    between atoms: N_1  and  CA_2
REMARK    2  A    between atoms: CA_2  and  CB_3
REMARK    3  A    between atoms: CA_2  and  C_10
REMARK    4  A    between atoms: CB_3  and  CG_4
REMARK    5  A    between atoms: C_10  and  OXT_12
REMARK                            x       y       z     vdW  Elec       q    Type
REMARK                         _______ _______ _______ _____ _____    ______ ____
ROOT
ATOM      1  CA  PHE A   1     -10.183  -0.983  47.838  0.00  0.00    +0.165 C 
ENDROOT
BRANCH   1   2
ATOM      2  N   PHE A   1     -10.951  -1.083  49.082  0.00  0.00    -0.318 NA
ATOM      3  H1  PHE A   1     -11.169  -2.091  49.260  0.00  0.00    +0.119 HD
ATOM      4  H2  PHE A   1     -11.863  -0.584  48.970  0.00  0.00    +0.119 HD
ENDBRANCH   1   2
BRANCH   1   5
ATOM      5  C   PHE A   1     -11.022  -1.481  46.694  0.00  0.00    +0.322 C 
ATOM      6  O   PHE A   1     -11.189  -0.761  45.674  0.00  0.00    -0.249 OA
BRANCH   5   7
ATOM      7  OXT PHE A   1     -11.603  -2.745  46.753  0.00  0.00    -0.479 OA
ATOM      8  HXT PHE A   1     -11.991  -3.098  47.620  0.00  0.00    +0.295 HD
ENDBRANCH   5   7
ENDBRANCH   1   5
BRANCH   1   9
ATOM      9  CB  PHE A   1      -8.859  -1.769  47.944  0.00  0.00    +0.065 C 
BRANCH   9  10
ATOM     10  CG  PHE A   1      -7.668  -0.846  48.011  0.00  0.00    -0.045 A 
ATOM     11  CD1 PHE A   1      -6.365  -1.373  48.004  0.00  0.00    +0.003 A 
ATOM     12  CE1 PHE A   1      -5.260  -0.520  48.096  0.00  0.00    +0.000 A 
ATOM     13  CZ  PHE A   1      -5.448   0.861  48.203  0.00  0.00    +0.000 A 
ATOM     14  CE2 PHE A   1      -6.741   1.392  48.221  0.00  0.00    +0.000 A 
ATOM     15  CD2 PHE A   1      -7.847   0.543  48.129  0.00  0.00    +0.003 A 
ENDBRANCH   9  10
ENDBRANCH   1   9
TORSDOF 5
ENDMDL
MODEL 5
REMARK VINA RESULT:      -4.5     35.698     36.449
REMARK  Name = peptide_16_EECPCKRNFQ
REMARK  5 active torsions:
REMARK  status: ('A' for Active; 'I' for Inactive)
REMARK    1  A    between atoms: N_1  and  CA_2
REMARK    2  A    between atoms: CA_2  and  CB_3
REMARK    3  A    between atoms: CA_2  and  C_10
REMARK    4  A    between atoms: CB_3  and  CG_4
REMARK    5  A    between atoms: C_10  and  OXT_12
REMARK                            x       y       z     vdW  Elec       q    Type
REMARK                         _______ _______ _______ _____ _____    ______ ____
ROOT
ATOM      1  CA  PHE A   1      21.573   5.927   8.799  0.00  0.00    +0.165 C 
ENDROOT
BRANCH   1   2
ATOM      2  N   PHE A   1      21.958   6.408   7.471  0.00  0.00    -0.318 NA
ATOM      3  H1  PHE A   1      21.650   5.705   6.759  0.00  0.00    +0.119 HD
ATOM      4  H2  PHE A   1      23.000   6.474   7.411  0.00  0.00    +0.119 HD
ENDBRANCH   1   2
BRANCH   1   5
ATOM      5  C   PHE A   1      22.802   5.479   9.541  0.00  0.00    +0.322 C 
ATOM      6  O   PHE A   1      23.056   4.250   9.657  0.00  0.00    -0.249 OA
BRANCH   5   7
ATOM      7  OXT PHE A   1      23.669   6.421  10.088  0.00  0.00    -0.479 OA
ATOM      8  HXT PHE A   1      23.545   6.750  11.038  0.00  0.00    +0.295 HD
ENDBRANCH   5   7
ENDBRANCH   1   5
BRANCH   1   9
ATOM      9  CB  PHE A   1      20.536   4.788   8.695  0.00  0.00    +0.065 C 
BRANCH   9  10
ATOM     10  CG  PHE A   1      19.168   5.237   9.141  0.00  0.00    -0.045 A 
ATOM     11  CD1 PHE A   1      18.066   4.372   9.022  0.00  0.00    +0.003 A 
ATOM     12  CE1 PHE A   1      16.791   4.799   9.407  0.00  0.00    +0.000 A 
ATOM     13  CZ  PHE A   1      16.606   6.091   9.907  0.00  0.00    +0.000 A 
ATOM     14  CE2 PHE A   1      17.694   6.961  10.018  0.00  0.00    +0.000 A 
ATOM     15  CD2 PHE A   1      18.970   6.538   9.634  0.00  0.00    +0.003 A 
ENDBRANCH   9  10
ENDBRANCH   1   9
TORSDOF 5
ENDMDL
MODEL 6
REMARK VINA RESULT:      -4.4      1.540      1.985
REMARK  Name = peptide_16_EECPCKRNFQ
REMARK  5 active torsions:
REMARK  status: ('A' for Active; 'I' for Inactive)
REMARK    1  A    between atoms: N_1  and  CA_2
REMARK    2  A    between atoms: CA_2  and  CB_3
REMARK    3  A    between atoms: CA_2  and  C_10
REMARK    4  A    between atoms: CB_3  and  CG_4
REMARK    5  A    between atoms: C_10  and  OXT_12
REMARK                            x       y       z     vdW  Elec       q    Type
REMARK                         _______ _______ _______ _____ _____    ______ ____
ROOT
ATOM      1  CA  PHE A   1      10.771  -4.990  43.093  0.00  0.00    +0.165 C 
ENDROOT
BRANCH   1   2
ATOM      2  N   PHE A   1      11.491  -6.259  42.960  0.00  0.00    -0.318 NA
ATOM      3  H1  PHE A   1      12.076  -6.403  43.815  0.00  0.00    +0.119 HD
ATOM      4  H2  PHE A   1      12.142  -6.208  42.143  0.00  0.00    +0.119 HD
ENDBRANCH   1   2
BRANCH   1   5
ATOM      5  C   PHE A   1       9.324  -5.268  43.393  0.00  0.00    +0.322 C 
ATOM      6  O   PHE A   1       8.732  -6.220  42.819  0.00  0.00    -0.249 OA
BRANCH   5   7
ATOM      7  OXT PHE A   1       8.641  -4.484  44.319  0.00  0.00    -0.479 OA
ATOM      8  HXT PHE A   1       9.139  -3.839  44.922  0.00  0.00    +0.295 HD
ENDBRANCH   5   7
ENDBRANCH   1   5
BRANCH   1   9
ATOM      9  CB  PHE A   1      10.924  -4.134  41.819  0.00  0.00    +0.065 C 
BRANCH   9  10
ATOM     10  CG  PHE A   1      12.341  -3.652  41.637  0.00  0.00    -0.045 A 
ATOM     11  CD1 PHE A   1      13.065  -3.156  42.735  0.00  0.00    +0.003 A 
ATOM     12  CE1 PHE A   1      14.369  -2.681  42.562  0.00  0.00    +0.000 A 
ATOM     13  CZ  PHE A   1      14.956  -2.692  41.293  0.00  0.00    +0.000 A 
ATOM     14  CE2 PHE A   1      14.239  -3.174  40.195  0.00  0.00    +0.000 A 
ATOM     15  CD2 PHE A   1      12.936  -3.650  40.364  0.00  0.00    +0.003 A 
ENDBRANCH   9  10
ENDBRANCH   1   9
TORSDOF 5
ENDMDL
MODEL 7
REMARK VINA RESULT:      -4.4     35.350     36.677
REMARK  Name = peptide_16_EECPCKRNFQ
REMARK  5 active torsions:
REMARK  status: ('A' for Active; 'I' for Inactive)
REMARK    1  A    between atoms: N_1  and  CA_2
REMARK    2  A    between atoms: CA_2  and  CB_3
REMARK    3  A    between atoms: CA_2  and  C_10
REMARK    4  A    between atoms: CB_3  and  CG_4
REMARK    5  A    between atoms: C_10  and  OXT_12
REMARK                            x       y       z     vdW  Elec       q    Type
REMARK                         _______ _______ _______ _____ _____    ______ ____
ROOT
ATOM      1  CA  PHE A   1      20.548   4.640   9.286  0.00  0.00    +0.165 C 
ENDROOT
BRANCH   1   2
ATOM      2  N   PHE A   1      21.008   3.804   8.175  0.00  0.00    -0.318 NA
ATOM      3  H1  PHE A   1      21.841   4.260   7.736  0.00  0.00    +0.119 HD
ATOM      4  H2  PHE A   1      20.261   3.751   7.444  0.00  0.00    +0.119 HD
ENDBRANCH   1   2
BRANCH   1   5
ATOM      5  C   PHE A   1      19.137   4.261   9.642  0.00  0.00    +0.322 C 
ATOM      6  O   PHE A   1      18.395   5.083  10.243  0.00  0.00    -0.249 OA
BRANCH   5   7
ATOM      7  OXT PHE A   1      18.643   3.007   9.294  0.00  0.00    -0.479 OA
ATOM      8  HXT PHE A   1      19.272   2.239   9.089  0.00  0.00    +0.295 HD
ENDBRANCH   5   7
ENDBRANCH   1   5
BRANCH   1   9
ATOM      9  CB  PHE A   1      20.652   6.137   8.928  0.00  0.00    +0.065 C 
BRANCH   9  10
ATOM     10  CG  PHE A   1      22.066   6.645   9.060  0.00  0.00    -0.045 A 
ATOM     11  CD1 PHE A   1      23.151   5.770   8.879  0.00  0.00    +0.003 A 
ATOM     12  CE1 PHE A   1      24.461   6.233   9.031  0.00  0.00    +0.000 A 
ATOM     13  CZ  PHE A   1      24.698   7.568   9.369  0.00  0.00    +0.000 A 
ATOM     14  CE2 PHE A   1      23.624   8.442   9.561  0.00  0.00    +0.000 A 
ATOM     15  CD2 PHE A   1      22.313   7.983   9.410  0.00  0.00    +0.003 A 
ENDBRANCH   9  10
ENDBRANCH   1   9
TORSDOF 5
ENDMDL
MODEL 8
REMARK VINA RESULT:      -4.4     23.611     24.853
REMARK  Name = peptide_16_EECPCKRNFQ
REMARK  5 active torsions:
REMARK  status: ('A' for Active; 'I' for Inactive)
REMARK    1  A    between atoms: N_1  and  CA_2
REMARK    2  A    between atoms: CA_2  and  CB_3
REMARK    3  A    between atoms: CA_2  and  C_10
REMARK    4  A    between atoms: CB_3  and  CG_4
REMARK    5  A    between atoms: C_10  and  OXT_12
REMARK                            x       y       z     vdW  Elec       q    Type
REMARK                         _______ _______ _______ _____ _____    ______ ____
ROOT
ATOM      1  CA  PHE A   1       6.084   8.768  24.697  0.00  0.00    +0.165 C 
ENDROOT
BRANCH   1   2
ATOM      2  N   PHE A   1       5.817   7.492  24.029  0.00  0.00    -0.318 NA
ATOM      3  H1  PHE A   1       6.726   7.086  23.710  0.00  0.00    +0.119 HD
ATOM      4  H2  PHE A   1       5.234   7.659  23.176  0.00  0.00    +0.119 HD
ENDBRANCH   1   2
BRANCH   1   5
ATOM      5  C   PHE A   1       6.335   8.521  26.159  0.00  0.00    +0.322 C 
ATOM      6  O   PHE A   1       6.273   7.350  26.621  0.00  0.00    -0.249 OA
BRANCH   5   7
ATOM      7  OXT PHE A   1       6.654   9.583  27.001  0.00  0.00    -0.479 OA
ATOM      8  HXT PHE A   1       6.331  10.522  26.797  0.00  0.00    +0.295 HD
ENDBRANCH   5   7
ENDBRANCH   1   5
BRANCH   1   9
ATOM      9  CB  PHE A   1       4.915   9.754  24.490  0.00  0.00    +0.065 C 
BRANCH   9  10
ATOM     10  CG  PHE A   1       5.057  10.524  23.201  0.00  0.00    -0.045 A 
ATOM     11  CD1 PHE A   1       6.235  11.242  22.933  0.00  0.00    +0.003 A 
ATOM     12  CE1 PHE A   1       6.356  11.981  21.752  0.00  0.00    +0.000 A 
ATOM     13  CZ  PHE A   1       5.301  12.014  20.835  0.00  0.00    +0.000 A 
ATOM     14  CE2 PHE A   1       4.123  11.311  21.099  0.00  0.00    +0.000 A 
ATOM     15  CD2 PHE A   1       3.998  10.571  22.278  0.00  0.00    +0.003 A 
ENDBRANCH   9  10
ENDBRANCH   1   9
TORSDOF 5
ENDMDL
MODEL 9
REMARK VINA RESULT:      -4.3     35.423     35.754
REMARK  Name = peptide_16_EECPCKRNFQ
REMARK  5 active torsions:
REMARK  status: ('A' for Active; 'I' for Inactive)
REMARK    1  A    between atoms: N_1  and  CA_2
REMARK    2  A    between atoms: CA_2  and  CB_3
REMARK    3  A    between atoms: CA_2  and  C_10
REMARK    4  A    between atoms: CB_3  and  CG_4
REMARK    5  A    between atoms: C_10  and  OXT_12
REMARK                            x       y       z     vdW  Elec       q    Type
REMARK                         _______ _______ _______ _____ _____    ______ ____
ROOT
ATOM      1  CA  PHE A   1      15.705   7.851   9.947  0.00  0.00    +0.165 C 
ENDROOT
BRANCH   1   2
ATOM      2  N   PHE A   1      15.463   8.070  11.375  0.00  0.00    -0.318 NA
ATOM      3  H1  PHE A   1      15.006   9.003  11.497  0.00  0.00    +0.119 HD
ATOM      4  H2  PHE A   1      16.376   8.104  11.884  0.00  0.00    +0.119 HD
ENDBRANCH   1   2
BRANCH   1   5
ATOM      5  C   PHE A   1      14.657   8.574   9.148  0.00  0.00    +0.322 C 
ATOM      6  O   PHE A   1      14.690   9.831   9.055  0.00  0.00    -0.249 OA
BRANCH   5   7
ATOM      7  OXT PHE A   1      13.659   7.857   8.495  0.00  0.00    -0.479 OA
ATOM      8  HXT PHE A   1      13.101   7.173   8.993  0.00  0.00    +0.295 HD
ENDBRANCH   5   7
ENDBRANCH   1   5
BRANCH   1   9
ATOM      9  CB  PHE A   1      15.720   6.344   9.616  0.00  0.00    +0.065 C 
BRANCH   9  10
ATOM     10  CG  PHE A   1      17.125   5.823   9.450  0.00  0.00    -0.045 A 
ATOM     11  CD1 PHE A   1      17.353   4.447   9.279  0.00  0.00    +0.003 A 
ATOM     12  CE1 PHE A   1      18.658   3.959   9.155  0.00  0.00    +0.000 A 
ATOM     13  CZ  PHE A   1      19.742   4.839   9.208  0.00  0.00    +0.000 A 
ATOM     14  CE2 PHE A   1      19.525   6.208   9.390  0.00  0.00    +0.000 A 
ATOM     15  CD2 PHE A   1      18.222   6.699   9.513  0.00  0.00    +0.003 A 
ENDBRANCH   9  10
ENDBRANCH   1   9
TORSDOF 5
ENDMDL
