MODEL 1
REMARK VINA RESULT:      -6.2      0.000      0.000
REMARK  Name = peptide_45_DNEGKWIQWP
REMARK  5 active torsions:
REMARK  status: ('A' for Active; 'I' for Inactive)
REMARK    1  A    between atoms: N_1  and  CA_2
REMARK    2  A    between atoms: CA_2  and  CB_3
REMARK    3  A    between atoms: CA_2  and  C_13
REMARK    4  A    between atoms: CB_3  and  CG_4
REMARK    5  A    between atoms: C_13  and  OXT_15
REMARK                            x       y       z     vdW  Elec       q    Type
REMARK                         _______ _______ _______ _____ _____    ______ ____
ROOT
ATOM      1  CG  TRP A   1      18.355   5.314   9.127  0.00  0.00    -0.020 A 
ATOM      2  CD1 TRP A   1      18.138   3.939   9.112  0.00  0.00    +0.087 A 
ATOM      3  NE1 TRP A   1      19.316   3.275   9.147  0.00  0.00    -0.360 N 
ATOM      4  CE2 TRP A   1      20.273   4.218   9.171  0.00  0.00    +0.047 A 
ATOM      5  CZ2 TRP A   1      21.653   4.021   9.191  0.00  0.00    +0.026 A 
ATOM      6  CH2 TRP A   1      22.481   5.159   9.194  0.00  0.00    +0.002 A 
ATOM      7  CZ3 TRP A   1      21.916   6.454   9.174  0.00  0.00    +0.001 A 
ATOM      8  CE3 TRP A   1      20.520   6.622   9.152  0.00  0.00    +0.010 A 
ATOM      9  CD2 TRP A   1      19.726   5.475   9.155  0.00  0.00    +0.003 A 
ATOM     10  HE1 TRP A   1      19.450   2.240   9.140  0.00  0.00    +0.165 HD
ENDROOT
BRANCH   1  11
ATOM     11  CB  TRP A   1      17.308   6.387   9.027  0.00  0.00    +0.067 C 
BRANCH  11  12
ATOM     12  CA  TRP A   1      16.188   6.186  10.068  0.00  0.00    +0.165 C 
BRANCH  12  13
ATOM     13  N   TRP A   1      14.992   6.947   9.704  0.00  0.00    -0.318 NA
ATOM     14  H1  TRP A   1      14.193   6.613  10.291  0.00  0.00    +0.119 HD
ATOM     15  H2  TRP A   1      14.743   6.752   8.706  0.00  0.00    +0.119 HD
ENDBRANCH  12  13
BRANCH  12  16
ATOM     16  C   TRP A   1      16.644   6.589  11.443  0.00  0.00    +0.322 C 
ATOM     17  O   TRP A   1      17.319   7.641  11.609  0.00  0.00    -0.249 OA
BRANCH  16  18
ATOM     18  OXT TRP A   1      16.345   5.779  12.535  0.00  0.00    -0.479 OA
ATOM     19  HXT TRP A   1      15.657   6.067  13.222  0.00  0.00    +0.295 HD
ENDBRANCH  16  18
ENDBRANCH  12  16
ENDBRANCH  11  12
ENDBRANCH   1  11
TORSDOF 5
ENDMDL
MODEL 2
REMARK VINA RESULT:      -6.2     46.090     47.389
REMARK  Name = peptide_45_DNEGKWIQWP
REMARK  5 active torsions:
REMARK  status: ('A' for Active; 'I' for Inactive)
REMARK    1  A    between atoms: N_1  and  CA_2
REMARK    2  A    between atoms: CA_2  and  CB_3
REMARK    3  A    between atoms: CA_2  and  C_13
REMARK    4  A    between atoms: CB_3  and  CG_4
REMARK    5  A    between atoms: C_13  and  OXT_15
REMARK                            x       y       z     vdW  Elec       q    Type
REMARK                         _______ _______ _______ _____ _____    ______ ____
ROOT
ATOM      1  CG  TRP A   1      -9.478  -0.142  47.898  0.00  0.00    -0.020 A 
ATOM      2  CD1 TRP A   1      -9.826   1.204  47.853  0.00  0.00    +0.087 A 
ATOM      3  NE1 TRP A   1      -8.718   1.979  47.920  0.00  0.00    -0.360 N 
ATOM      4  CE2 TRP A   1      -7.678   1.133  48.019  0.00  0.00    +0.047 A 
ATOM      5  CZ2 TRP A   1      -6.329   1.463  48.133  0.00  0.00    +0.026 A 
ATOM      6  CH2 TRP A   1      -5.401   0.410  48.244  0.00  0.00    +0.002 A 
ATOM      7  CZ3 TRP A   1      -5.840  -0.932  48.242  0.00  0.00    +0.001 A 
ATOM      8  CE3 TRP A   1      -7.208  -1.235  48.128  0.00  0.00    +0.010 A 
ATOM      9  CD2 TRP A   1      -8.102  -0.171  48.013  0.00  0.00    +0.003 A 
ATOM     10  HE1 TRP A   1      -8.684   3.023  47.912  0.00  0.00    +0.165 HD
ENDROOT
BRANCH   1  11
ATOM     11  CB  TRP A   1     -10.423  -1.311  47.922  0.00  0.00    +0.067 C 
BRANCH  11  12
ATOM     12  CA  TRP A   1     -11.706  -1.019  47.118  0.00  0.00    +0.165 C 
BRANCH  12  13
ATOM     13  N   TRP A   1     -12.891  -1.510  47.824  0.00  0.00    -0.318 NA
ATOM     14  H1  TRP A   1     -12.904  -2.555  47.765  0.00  0.00    +0.119 HD
ATOM     15  H2  TRP A   1     -13.754  -1.163  47.344  0.00  0.00    +0.119 HD
ENDBRANCH  12  13
BRANCH  12  16
ATOM     16  C   TRP A   1     -11.643  -1.635  45.748  0.00  0.00    +0.322 C 
ATOM     17  O   TRP A   1     -11.564  -2.886  45.614  0.00  0.00    -0.249 OA
BRANCH  16  18
ATOM     18  OXT TRP A   1     -11.640  -0.817  44.621  0.00  0.00    -0.479 OA
ATOM     19  HXT TRP A   1     -11.109  -1.071  43.796  0.00  0.00    +0.295 HD
ENDBRANCH  16  18
ENDBRANCH  12  16
ENDBRANCH  11  12
ENDBRANCH   1  11
TORSDOF 5
ENDMDL
MODEL 3
REMARK VINA RESULT:      -5.6      3.750      5.449
REMARK  Name = peptide_45_DNEGKWIQWP
REMARK  5 active torsions:
REMARK  status: ('A' for Active; 'I' for Inactive)
REMARK    1  A    between atoms: N_1  and  CA_2
REMARK    2  A    between atoms: CA_2  and  CB_3
REMARK    3  A    between atoms: CA_2  and  C_13
REMARK    4  A    between atoms: CB_3  and  CG_4
REMARK    5  A    between atoms: C_13  and  OXT_15
REMARK                            x       y       z     vdW  Elec       q    Type
REMARK                         _______ _______ _______ _____ _____    ______ ____
ROOT
ATOM      1  CG  TRP A   1      21.044   5.824   8.849  0.00  0.00    -0.020 A 
ATOM      2  CD1 TRP A   1      21.584   4.541   8.847  0.00  0.00    +0.087 A 
ATOM      3  NE1 TRP A   1      20.603   3.617   8.968  0.00  0.00    -0.360 N 
ATOM      4  CE2 TRP A   1      19.452   4.307   9.059  0.00  0.00    +0.047 A 
ATOM      5  CZ2 TRP A   1      18.167   3.789   9.216  0.00  0.00    +0.026 A 
ATOM      6  CH2 TRP A   1      17.098   4.699   9.310  0.00  0.00    +0.002 A 
ATOM      7  CZ3 TRP A   1      17.336   6.090   9.248  0.00  0.00    +0.001 A 
ATOM      8  CE3 TRP A   1      18.643   6.584   9.090  0.00  0.00    +0.010 A 
ATOM      9  CD2 TRP A   1      19.681   5.657   8.995  0.00  0.00    +0.003 A 
ATOM     10  HE1 TRP A   1      20.722   2.580   9.000  0.00  0.00    +0.165 HD
ENDROOT
BRANCH   1  11
ATOM     11  CB  TRP A   1      21.809   7.117   8.807  0.00  0.00    +0.067 C 
BRANCH  11  12
ATOM     12  CA  TRP A   1      23.020   7.091   9.761  0.00  0.00    +0.165 C 
BRANCH  12  13
ATOM     13  N   TRP A   1      22.922   8.154  10.763  0.00  0.00    -0.318 NA
ATOM     14  H1  TRP A   1      22.450   8.980  10.327  0.00  0.00    +0.119 HD
ATOM     15  H2  TRP A   1      23.883   8.460  11.044  0.00  0.00    +0.119 HD
ENDBRANCH  12  13
BRANCH  12  16
ATOM     16  C   TRP A   1      24.313   7.227   9.004  0.00  0.00    +0.322 C 
ATOM     17  O   TRP A   1      24.305   7.426   7.759  0.00  0.00    -0.249 OA
BRANCH  16  18
ATOM     18  OXT TRP A   1      25.524   7.103   9.678  0.00  0.00    -0.479 OA
ATOM     19  HXT TRP A   1      25.579   6.611  10.562  0.00  0.00    +0.295 HD
ENDBRANCH  16  18
ENDBRANCH  12  16
ENDBRANCH  11  12
ENDBRANCH   1  11
TORSDOF 5
ENDMDL
MODEL 4
REMARK VINA RESULT:      -5.3     18.019     19.083
REMARK  Name = peptide_45_DNEGKWIQWP
REMARK  5 active torsions:
REMARK  status: ('A' for Active; 'I' for Inactive)
REMARK    1  A    between atoms: N_1  and  CA_2
REMARK    2  A    between atoms: CA_2  and  CB_3
REMARK    3  A    between atoms: CA_2  and  C_13
REMARK    4  A    between atoms: CB_3  and  CG_4
REMARK    5  A    between atoms: C_13  and  OXT_15
REMARK                            x       y       z     vdW  Elec       q    Type
REMARK                         _______ _______ _______ _____ _____    ______ ____
ROOT
ATOM      1  CG  TRP A   1       8.535   8.029  25.208  0.00  0.00    -0.020 A 
ATOM      2  CD1 TRP A   1       9.871   8.160  24.839  0.00  0.00    +0.087 A 
ATOM      3  NE1 TRP A   1      10.576   7.072  25.224  0.00  0.00    -0.360 N 
ATOM      4  CE2 TRP A   1       9.699   6.261  25.843  0.00  0.00    +0.047 A 
ATOM      5  CZ2 TRP A   1       9.960   5.024  26.430  0.00  0.00    +0.026 A 
ATOM      6  CH2 TRP A   1       8.891   4.348  27.045  0.00  0.00    +0.002 A 
ATOM      7  CZ3 TRP A   1       7.599   4.919  27.062  0.00  0.00    +0.001 A 
ATOM      8  CE3 TRP A   1       7.365   6.170  26.463  0.00  0.00    +0.010 A 
ATOM      9  CD2 TRP A   1       8.444   6.813  25.857  0.00  0.00    +0.003 A 
ATOM     10  HE1 TRP A   1      11.597   6.906  25.082  0.00  0.00    +0.165 HD
ENDROOT
BRANCH   1  11
ATOM     11  CB  TRP A   1       7.451   9.052  25.024  0.00  0.00    +0.067 C 
BRANCH  11  12
ATOM     12  CA  TRP A   1       7.073   9.219  23.538  0.00  0.00    +0.165 C 
BRANCH  12  13
ATOM     13  N   TRP A   1       7.028  10.634  23.164  0.00  0.00    -0.318 NA
ATOM     14  H1  TRP A   1       7.859  10.847  22.566  0.00  0.00    +0.119 HD
ATOM     15  H2  TRP A   1       7.105  11.226  24.024  0.00  0.00    +0.119 HD
ENDBRANCH  12  13
BRANCH  12  16
ATOM     16  C   TRP A   1       5.749   8.573  23.237  0.00  0.00    +0.322 C 
ATOM     17  O   TRP A   1       4.785   9.264  22.809  0.00  0.00    -0.249 OA
BRANCH  16  18
ATOM     18  OXT TRP A   1       5.579   7.210  23.460  0.00  0.00    -0.479 OA
ATOM     19  HXT TRP A   1       5.199   6.609  22.738  0.00  0.00    +0.295 HD
ENDBRANCH  16  18
ENDBRANCH  12  16
ENDBRANCH  11  12
ENDBRANCH   1  11
TORSDOF 5
ENDMDL
MODEL 5
REMARK VINA RESULT:      -5.3     34.357     35.624
REMARK  Name = peptide_45_DNEGKWIQWP
REMARK  5 active torsions:
REMARK  status: ('A' for Active; 'I' for Inactive)
REMARK    1  A    between atoms: N_1  and  CA_2
REMARK    2  A    between atoms: CA_2  and  CB_3
REMARK    3  A    between atoms: CA_2  and  C_13
REMARK    4  A    between atoms: CB_3  and  CG_4
REMARK    5  A    between atoms: C_13  and  OXT_15
REMARK                            x       y       z     vdW  Elec       q    Type
REMARK                         _______ _______ _______ _____ _____    ______ ____
ROOT
ATOM      1  CG  TRP A   1      12.182  -4.003  42.262  0.00  0.00    -0.020 A 
ATOM      2  CD1 TRP A   1      11.187  -3.063  42.012  0.00  0.00    +0.087 A 
ATOM      3  NE1 TRP A   1       9.965  -3.596  42.246  0.00  0.00    -0.360 N 
ATOM      4  CE2 TRP A   1      10.182  -4.866  42.628  0.00  0.00    +0.047 A 
ATOM      5  CZ2 TRP A   1       9.224  -5.824  42.960  0.00  0.00    +0.026 A 
ATOM      6  CH2 TRP A   1       9.673  -7.109  43.316  0.00  0.00    +0.002 A 
ATOM      7  CZ3 TRP A   1      11.054  -7.405  43.330  0.00  0.00    +0.001 A 
ATOM      8  CE3 TRP A   1      11.998  -6.419  42.989  0.00  0.00    +0.010 A 
ATOM      9  CD2 TRP A   1      11.522  -5.154  42.646  0.00  0.00    +0.003 A 
ATOM     10  HE1 TRP A   1       9.044  -3.118  42.135  0.00  0.00    +0.165 HD
ENDROOT
BRANCH   1  11
ATOM     11  CB  TRP A   1      13.659  -3.822  42.051  0.00  0.00    +0.067 C 
BRANCH  11  12
ATOM     12  CA  TRP A   1      14.245  -2.773  43.017  0.00  0.00    +0.165 C 
BRANCH  12  13
ATOM     13  N   TRP A   1      15.209  -1.910  42.331  0.00  0.00    -0.318 NA
ATOM     14  H1  TRP A   1      16.162  -2.330  42.431  0.00  0.00    +0.119 HD
ATOM     15  H2  TRP A   1      15.234  -0.973  42.797  0.00  0.00    +0.119 HD
ENDBRANCH  12  13
BRANCH  12  16
ATOM     16  C   TRP A   1      14.905  -3.428  44.198  0.00  0.00    +0.322 C 
ATOM     17  O   TRP A   1      15.007  -4.683  44.257  0.00  0.00    -0.249 OA
BRANCH  16  18
ATOM     18  OXT TRP A   1      15.378  -2.646  45.247  0.00  0.00    -0.479 OA
ATOM     19  HXT TRP A   1      16.372  -2.494  45.375  0.00  0.00    +0.295 HD
ENDBRANCH  16  18
ENDBRANCH  12  16
ENDBRANCH  11  12
ENDBRANCH   1  11
TORSDOF 5
ENDMDL
MODEL 6
REMARK VINA RESULT:      -5.2      3.143      5.465
REMARK  Name = peptide_45_DNEGKWIQWP
REMARK  5 active torsions:
REMARK  status: ('A' for Active; 'I' for Inactive)
REMARK    1  A    between atoms: N_1  and  CA_2
REMARK    2  A    between atoms: CA_2  and  CB_3
REMARK    3  A    between atoms: CA_2  and  C_13
REMARK    4  A    between atoms: CB_3  and  CG_4
REMARK    5  A    between atoms: C_13  and  OXT_15
REMARK                            x       y       z     vdW  Elec       q    Type
REMARK                         _______ _______ _______ _____ _____    ______ ____
ROOT
ATOM      1  CG  TRP A   1      19.845   7.468   9.667  0.00  0.00    -0.020 A 
ATOM      2  CD1 TRP A   1      19.590   8.638  10.376  0.00  0.00    +0.087 A 
ATOM      3  NE1 TRP A   1      18.307   8.660  10.804  0.00  0.00    -0.360 N 
ATOM      4  CE2 TRP A   1      17.748   7.520  10.361  0.00  0.00    +0.047 A 
ATOM      5  CZ2 TRP A   1      16.430   7.101  10.538  0.00  0.00    +0.026 A 
ATOM      6  CH2 TRP A   1      16.049   5.872   9.969  0.00  0.00    +0.002 A 
ATOM      7  CZ3 TRP A   1      16.982   5.100   9.243  0.00  0.00    +0.001 A 
ATOM      8  CE3 TRP A   1      18.305   5.549   9.079  0.00  0.00    +0.010 A 
ATOM      9  CD2 TRP A   1      18.654   6.768   9.659  0.00  0.00    +0.003 A 
ATOM     10  HE1 TRP A   1      17.844   9.418  11.353  0.00  0.00    +0.165 HD
ENDROOT
BRANCH   1  11
ATOM     11  CB  TRP A   1      21.125   7.104   8.970  0.00  0.00    +0.067 C 
BRANCH  11  12
ATOM     12  CA  TRP A   1      21.956   6.102   9.797  0.00  0.00    +0.165 C 
BRANCH  12  13
ATOM     13  N   TRP A   1      23.314   6.603  10.017  0.00  0.00    -0.318 NA
ATOM     14  H1  TRP A   1      23.489   6.649  11.048  0.00  0.00    +0.119 HD
ATOM     15  H2  TRP A   1      23.392   7.578   9.647  0.00  0.00    +0.119 HD
ENDBRANCH  12  13
BRANCH  12  16
ATOM     16  C   TRP A   1      22.016   4.758   9.125  0.00  0.00    +0.322 C 
ATOM     17  O   TRP A   1      21.413   4.562   8.036  0.00  0.00    -0.249 OA
BRANCH  16  18
ATOM     18  OXT TRP A   1      22.716   3.716   9.726  0.00  0.00    -0.479 OA
ATOM     19  HXT TRP A   1      23.413   3.193   9.209  0.00  0.00    +0.295 HD
ENDBRANCH  16  18
ENDBRANCH  12  16
ENDBRANCH  11  12
ENDBRANCH   1  11
TORSDOF 5
ENDMDL
MODEL 7
REMARK VINA RESULT:      -5.2     21.607     23.047
REMARK  Name = peptide_45_DNEGKWIQWP
REMARK  5 active torsions:
REMARK  status: ('A' for Active; 'I' for Inactive)
REMARK    1  A    between atoms: N_1  and  CA_2
REMARK    2  A    between atoms: CA_2  and  CB_3
REMARK    3  A    between atoms: CA_2  and  C_13
REMARK    4  A    between atoms: CB_3  and  CG_4
REMARK    5  A    between atoms: C_13  and  OXT_15
REMARK                            x       y       z     vdW  Elec       q    Type
REMARK                         _______ _______ _______ _____ _____    ______ ____
ROOT
ATOM      1  CG  TRP A   1       2.600  -0.174  24.204  0.00  0.00    -0.020 A 
ATOM      2  CD1 TRP A   1       3.647   0.741  24.144  0.00  0.00    +0.087 A 
ATOM      3  NE1 TRP A   1       4.837   0.103  24.236  0.00  0.00    -0.360 N 
ATOM      4  CE2 TRP A   1       4.548  -1.204  24.366  0.00  0.00    +0.047 A 
ATOM      5  CZ2 TRP A   1       5.449  -2.257  24.514  0.00  0.00    +0.026 A 
ATOM      6  CH2 TRP A   1       4.926  -3.556  24.655  0.00  0.00    +0.002 A 
ATOM      7  CZ3 TRP A   1       3.530  -3.769  24.648  0.00  0.00    +0.001 A 
ATOM      8  CE3 TRP A   1       2.644  -2.687  24.499  0.00  0.00    +0.010 A 
ATOM      9  CD2 TRP A   1       3.193  -1.412  24.356  0.00  0.00    +0.003 A 
ATOM     10  HE1 TRP A   1       5.783   0.542  24.224  0.00  0.00    +0.165 HD
ENDROOT
BRANCH   1  11
ATOM     11  CB  TRP A   1       1.131   0.144  24.209  0.00  0.00    +0.067 C 
BRANCH  11  12
ATOM     12  CA  TRP A   1       0.757   1.078  25.377  0.00  0.00    +0.165 C 
BRANCH  12  13
ATOM     13  N   TRP A   1       0.146   0.325  26.475  0.00  0.00    -0.318 NA
ATOM     14  H1  TRP A   1      -0.669   0.871  26.840  0.00  0.00    +0.119 HD
ATOM     15  H2  TRP A   1       0.832   0.232  27.260  0.00  0.00    +0.119 HD
ENDBRANCH  12  13
BRANCH  12  16
ATOM     16  C   TRP A   1      -0.180   2.165  24.927  0.00  0.00    +0.322 C 
ATOM     17  O   TRP A   1      -1.361   2.211  25.366  0.00  0.00    -0.249 OA
BRANCH  16  18
ATOM     18  OXT TRP A   1       0.251   3.107  23.998  0.00  0.00    -0.479 OA
ATOM     19  HXT TRP A   1      -0.407   3.732  23.548  0.00  0.00    +0.295 HD
ENDBRANCH  16  18
ENDBRANCH  12  16
ENDBRANCH  11  12
ENDBRANCH   1  11
TORSDOF 5
ENDMDL
MODEL 8
REMARK VINA RESULT:      -5.1     46.537     47.508
REMARK  Name = peptide_45_DNEGKWIQWP
REMARK  5 active torsions:
REMARK  status: ('A' for Active; 'I' for Inactive)
REMARK    1  A    between atoms: N_1  and  CA_2
REMARK    2  A    between atoms: CA_2  and  CB_3
REMARK    3  A    between atoms: CA_2  and  C_13
REMARK    4  A    between atoms: CB_3  and  CG_4
REMARK    5  A    between atoms: C_13  and  OXT_15
REMARK                            x       y       z     vdW  Elec       q    Type
REMARK                         _______ _______ _______ _____ _____    ______ ____
ROOT
ATOM      1  CG  TRP A   1      -9.083  -1.162  47.739  0.00  0.00    -0.020 A 
ATOM      2  CD1 TRP A   1      -8.667  -2.484  47.863  0.00  0.00    +0.087 A 
ATOM      3  NE1 TRP A   1      -7.347  -2.538  48.154  0.00  0.00    -0.360 N 
ATOM      4  CE2 TRP A   1      -6.925  -1.262  48.203  0.00  0.00    +0.047 A 
ATOM      5  CZ2 TRP A   1      -5.631  -0.809  48.452  0.00  0.00    +0.026 A 
ATOM      6  CH2 TRP A   1      -5.405   0.580  48.436  0.00  0.00    +0.002 A 
ATOM      7  CZ3 TRP A   1      -6.466   1.474  48.172  0.00  0.00    +0.001 A 
ATOM      8  CE3 TRP A   1      -7.762   0.988  47.922  0.00  0.00    +0.010 A 
ATOM      9  CD2 TRP A   1      -7.955  -0.393  47.950  0.00  0.00    +0.003 A 
ATOM     10  HE1 TRP A   1      -6.772  -3.398  48.296  0.00  0.00    +0.165 HD
ENDROOT
BRANCH   1  11
ATOM     11  CB  TRP A   1     -10.455  -0.687  47.351  0.00  0.00    +0.067 C 
BRANCH  11  12
ATOM     12  CA  TRP A   1     -11.177  -1.712  46.452  0.00  0.00    +0.165 C 
BRANCH  12  13
ATOM     13  N   TRP A   1     -11.630  -1.089  45.207  0.00  0.00    -0.318 NA
ATOM     14  H1  TRP A   1     -11.224  -0.127  45.149  0.00  0.00    +0.119 HD
ATOM     15  H2  TRP A   1     -12.672  -0.985  45.227  0.00  0.00    +0.119 HD
ENDBRANCH  12  13
BRANCH  12  16
ATOM     16  C   TRP A   1     -12.348  -2.331  47.164  0.00  0.00    +0.322 C 
ATOM     17  O   TRP A   1     -13.150  -3.078  46.542  0.00  0.00    -0.249 OA
BRANCH  16  18
ATOM     18  OXT TRP A   1     -12.565  -2.051  48.510  0.00  0.00    -0.479 OA
ATOM     19  HXT TRP A   1     -13.181  -1.297  48.791  0.00  0.00    +0.295 HD
ENDBRANCH  16  18
ENDBRANCH  12  16
ENDBRANCH  11  12
ENDBRANCH   1  11
TORSDOF 5
ENDMDL
MODEL 9
REMARK VINA RESULT:      -5.1      2.081      2.859
REMARK  Name = peptide_45_DNEGKWIQWP
REMARK  5 active torsions:
REMARK  status: ('A' for Active; 'I' for Inactive)
REMARK    1  A    between atoms: N_1  and  CA_2
REMARK    2  A    between atoms: CA_2  and  CB_3
REMARK    3  A    between atoms: CA_2  and  C_13
REMARK    4  A    between atoms: CB_3  and  CG_4
REMARK    5  A    between atoms: C_13  and  OXT_15
REMARK                            x       y       z     vdW  Elec       q    Type
REMARK                         _______ _______ _______ _____ _____    ______ ____
ROOT
ATOM      1  CG  TRP A   1      19.539   6.377   9.349  0.00  0.00    -0.020 A 
ATOM      2  CD1 TRP A   1      19.765   7.748   9.274  0.00  0.00    +0.087 A 
ATOM      3  NE1 TRP A   1      21.085   8.002   9.122  0.00  0.00    -0.360 N 
ATOM      4  CE2 TRP A   1      21.694   6.803   9.112  0.00  0.00    +0.047 A 
ATOM      5  CZ2 TRP A   1      23.060   6.551   8.996  0.00  0.00    +0.026 A 
ATOM      6  CH2 TRP A   1      23.487   5.210   9.029  0.00  0.00    +0.002 A 
ATOM      7  CZ3 TRP A   1      22.549   4.165   9.178  0.00  0.00    +0.001 A 
ATOM      8  CE3 TRP A   1      21.177   4.449   9.294  0.00  0.00    +0.010 A 
ATOM      9  CD2 TRP A   1      20.785   5.787   9.253  0.00  0.00    +0.003 A 
ATOM     10  HE1 TRP A   1      21.536   8.940   9.044  0.00  0.00    +0.165 HD
ENDROOT
BRANCH   1  11
ATOM     11  CB  TRP A   1      18.221   5.697   9.591  0.00  0.00    +0.067 C 
BRANCH  11  12
ATOM     12  CA  TRP A   1      17.238   6.618  10.342  0.00  0.00    +0.165 C 
BRANCH  12  13
ATOM     13  N   TRP A   1      16.717   5.961  11.542  0.00  0.00    -0.318 NA
ATOM     14  H1  TRP A   1      17.519   5.534  12.062  0.00  0.00    +0.119 HD
ATOM     15  H2  TRP A   1      16.078   5.180  11.265  0.00  0.00    +0.119 HD
ENDBRANCH  12  13
BRANCH  12  16
ATOM     16  C   TRP A   1      16.095   7.032   9.457  0.00  0.00    +0.322 C 
ATOM     17  O   TRP A   1      14.962   6.496   9.585  0.00  0.00    -0.249 OA
BRANCH  16  18
ATOM     18  OXT TRP A   1      16.299   7.992   8.469  0.00  0.00    -0.479 OA
ATOM     19  HXT TRP A   1      15.555   8.245   7.829  0.00  0.00    +0.295 HD
ENDBRANCH  16  18
ENDBRANCH  12  16
ENDBRANCH  11  12
ENDBRANCH   1  11
TORSDOF 5
ENDMDL
