MODEL 1
REMARK VINA RESULT:      -6.2      0.000      0.000
REMARK  Name = peptide_38_NWRILMPGEE
REMARK  5 active torsions:
REMARK  status: ('A' for Active; 'I' for Inactive)
REMARK    1  A    between atoms: N_1  and  CA_2
REMARK    2  A    between atoms: CA_2  and  CB_3
REMARK    3  A    between atoms: CA_2  and  C_13
REMARK    4  A    between atoms: CB_3  and  CG_4
REMARK    5  A    between atoms: C_13  and  OXT_15
REMARK                            x       y       z     vdW  Elec       q    Type
REMARK                         _______ _______ _______ _____ _____    ______ ____
ROOT
ATOM      1  CG  TRP A   1      18.356   5.317   9.131  0.00  0.00    -0.020 A 
ATOM      2  CD1 TRP A   1      18.138   3.942   9.112  0.00  0.00    +0.087 A 
ATOM      3  NE1 TRP A   1      19.315   3.277   9.145  0.00  0.00    -0.360 N 
ATOM      4  CE2 TRP A   1      20.274   4.220   9.173  0.00  0.00    +0.047 A 
ATOM      5  CZ2 TRP A   1      21.654   4.022   9.193  0.00  0.00    +0.026 A 
ATOM      6  CH2 TRP A   1      22.482   5.159   9.200  0.00  0.00    +0.002 A 
ATOM      7  CZ3 TRP A   1      21.918   6.454   9.184  0.00  0.00    +0.001 A 
ATOM      8  CE3 TRP A   1      20.522   6.624   9.161  0.00  0.00    +0.010 A 
ATOM      9  CD2 TRP A   1      19.728   5.477   9.160  0.00  0.00    +0.003 A 
ATOM     10  HE1 TRP A   1      19.449   2.242   9.136  0.00  0.00    +0.165 HD
ENDROOT
BRANCH   1  11
ATOM     11  CB  TRP A   1      17.310   6.391   9.032  0.00  0.00    +0.067 C 
BRANCH  11  12
ATOM     12  CA  TRP A   1      16.190   6.189  10.072  0.00  0.00    +0.165 C 
BRANCH  12  13
ATOM     13  N   TRP A   1      14.994   6.951   9.709  0.00  0.00    -0.318 NA
ATOM     14  H1  TRP A   1      14.854   7.709  10.417  0.00  0.00    +0.119 HD
ATOM     15  H2  TRP A   1      14.154   6.328   9.754  0.00  0.00    +0.119 HD
ENDBRANCH  12  13
BRANCH  12  16
ATOM     16  C   TRP A   1      16.645   6.589  11.448  0.00  0.00    +0.322 C 
ATOM     17  O   TRP A   1      17.317   7.643  11.617  0.00  0.00    -0.249 OA
BRANCH  16  18
ATOM     18  OXT TRP A   1      16.350   5.775  12.538  0.00  0.00    -0.479 OA
ATOM     19  HXT TRP A   1      15.465   5.858  13.024  0.00  0.00    +0.295 HD
ENDBRANCH  16  18
ENDBRANCH  12  16
ENDBRANCH  11  12
ENDBRANCH   1  11
TORSDOF 5
ENDMDL
MODEL 2
REMARK VINA RESULT:      -5.5     37.737     39.744
REMARK  Name = peptide_38_NWRILMPGEE
REMARK  5 active torsions:
REMARK  status: ('A' for Active; 'I' for Inactive)
REMARK    1  A    between atoms: N_1  and  CA_2
REMARK    2  A    between atoms: CA_2  and  CB_3
REMARK    3  A    between atoms: CA_2  and  C_13
REMARK    4  A    between atoms: CB_3  and  CG_4
REMARK    5  A    between atoms: C_13  and  OXT_15
REMARK                            x       y       z     vdW  Elec       q    Type
REMARK                         _______ _______ _______ _____ _____    ______ ____
ROOT
ATOM      1  CG  TRP A   1       6.446  -6.515  45.444  0.00  0.00    -0.020 A 
ATOM      2  CD1 TRP A   1       5.605  -7.233  44.599  0.00  0.00    +0.087 A 
ATOM      3  NE1 TRP A   1       4.313  -7.060  44.961  0.00  0.00    -0.360 N 
ATOM      4  CE2 TRP A   1       4.333  -6.249  46.033  0.00  0.00    +0.047 A 
ATOM      5  CZ2 TRP A   1       3.241  -5.799  46.773  0.00  0.00    +0.026 A 
ATOM      6  CH2 TRP A   1       3.493  -4.966  47.879  0.00  0.00    +0.002 A 
ATOM      7  CZ3 TRP A   1       4.817  -4.608  48.218  0.00  0.00    +0.001 A 
ATOM      8  CE3 TRP A   1       5.900  -5.079  47.454  0.00  0.00    +0.010 A 
ATOM      9  CD2 TRP A   1       5.617  -5.898  46.361  0.00  0.00    +0.003 A 
ATOM     10  HE1 TRP A   1       3.474  -7.485  44.507  0.00  0.00    +0.165 HD
ENDROOT
BRANCH   1  11
ATOM     11  CB  TRP A   1       7.948  -6.505  45.416  0.00  0.00    +0.067 C 
BRANCH  11  12
ATOM     12  CA  TRP A   1       8.488  -6.379  43.977  0.00  0.00    +0.165 C 
BRANCH  12  13
ATOM     13  N   TRP A   1       9.366  -7.503  43.646  0.00  0.00    -0.318 NA
ATOM     14  H1  TRP A   1      10.282  -7.365  44.133  0.00  0.00    +0.119 HD
ATOM     15  H2  TRP A   1       9.560  -7.505  42.618  0.00  0.00    +0.119 HD
ENDBRANCH  12  13
BRANCH  12  16
ATOM     16  C   TRP A   1       9.230  -5.085  43.785  0.00  0.00    +0.322 C 
ATOM     17  O   TRP A   1      10.443  -5.090  43.444  0.00  0.00    -0.249 OA
BRANCH  16  18
ATOM     18  OXT TRP A   1       8.580  -3.876  44.015  0.00  0.00    -0.479 OA
ATOM     19  HXT TRP A   1       8.905  -3.021  43.579  0.00  0.00    +0.295 HD
ENDBRANCH  16  18
ENDBRANCH  12  16
ENDBRANCH  11  12
ENDBRANCH   1  11
TORSDOF 5
ENDMDL
MODEL 3
REMARK VINA RESULT:      -5.5      3.748      5.384
REMARK  Name = peptide_38_NWRILMPGEE
REMARK  5 active torsions:
REMARK  status: ('A' for Active; 'I' for Inactive)
REMARK    1  A    between atoms: N_1  and  CA_2
REMARK    2  A    between atoms: CA_2  and  CB_3
REMARK    3  A    between atoms: CA_2  and  C_13
REMARK    4  A    between atoms: CB_3  and  CG_4
REMARK    5  A    between atoms: C_13  and  OXT_15
REMARK                            x       y       z     vdW  Elec       q    Type
REMARK                         _______ _______ _______ _____ _____    ______ ____
ROOT
ATOM      1  CG  TRP A   1      21.183   5.649   8.791  0.00  0.00    -0.020 A 
ATOM      2  CD1 TRP A   1      21.575   4.314   8.835  0.00  0.00    +0.087 A 
ATOM      3  NE1 TRP A   1      20.501   3.513   9.023  0.00  0.00    -0.360 N 
ATOM      4  CE2 TRP A   1      19.438   4.332   9.111  0.00  0.00    +0.047 A 
ATOM      5  CZ2 TRP A   1      18.109   3.970   9.324  0.00  0.00    +0.026 A 
ATOM      6  CH2 TRP A   1      17.151   4.998   9.402  0.00  0.00    +0.002 A 
ATOM      7  CZ3 TRP A   1      17.541   6.349   9.269  0.00  0.00    +0.001 A 
ATOM      8  CE3 TRP A   1      18.890   6.685   9.056  0.00  0.00    +0.010 A 
ATOM      9  CD2 TRP A   1      19.814   5.643   8.978  0.00  0.00    +0.003 A 
ATOM     10  HE1 TRP A   1      20.504   2.472   9.101  0.00  0.00    +0.165 HD
ENDROOT
BRANCH   1  11
ATOM     11  CB  TRP A   1      22.085   6.844   8.669  0.00  0.00    +0.067 C 
BRANCH  11  12
ATOM     12  CA  TRP A   1      22.953   7.030   9.930  0.00  0.00    +0.165 C 
BRANCH  12  13
ATOM     13  N   TRP A   1      22.480   8.162  10.729  0.00  0.00    -0.318 NA
ATOM     14  H1  TRP A   1      21.808   8.720  10.153  0.00  0.00    +0.119 HD
ATOM     15  H2  TRP A   1      23.286   8.790  10.958  0.00  0.00    +0.119 HD
ENDBRANCH  12  13
BRANCH  12  16
ATOM     16  C   TRP A   1      24.399   7.234   9.571  0.00  0.00    +0.322 C 
ATOM     17  O   TRP A   1      25.002   6.395   8.850  0.00  0.00    -0.249 OA
BRANCH  16  18
ATOM     18  OXT TRP A   1      25.083   8.342  10.064  0.00  0.00    -0.479 OA
ATOM     19  HXT TRP A   1      24.777   8.807  10.910  0.00  0.00    +0.295 HD
ENDBRANCH  16  18
ENDBRANCH  12  16
ENDBRANCH  11  12
ENDBRANCH   1  11
TORSDOF 5
ENDMDL
MODEL 4
REMARK VINA RESULT:      -5.3     18.001     19.094
REMARK  Name = peptide_38_NWRILMPGEE
REMARK  5 active torsions:
REMARK  status: ('A' for Active; 'I' for Inactive)
REMARK    1  A    between atoms: N_1  and  CA_2
REMARK    2  A    between atoms: CA_2  and  CB_3
REMARK    3  A    between atoms: CA_2  and  C_13
REMARK    4  A    between atoms: CB_3  and  CG_4
REMARK    5  A    between atoms: C_13  and  OXT_15
REMARK                            x       y       z     vdW  Elec       q    Type
REMARK                         _______ _______ _______ _____ _____    ______ ____
ROOT
ATOM      1  CG  TRP A   1       8.511   7.971  25.215  0.00  0.00    -0.020 A 
ATOM      2  CD1 TRP A   1       9.837   8.090  24.809  0.00  0.00    +0.087 A 
ATOM      3  NE1 TRP A   1      10.545   6.999  25.181  0.00  0.00    -0.360 N 
ATOM      4  CE2 TRP A   1       9.679   6.199  25.829  0.00  0.00    +0.047 A 
ATOM      5  CZ2 TRP A   1       9.948   4.964  26.417  0.00  0.00    +0.026 A 
ATOM      6  CH2 TRP A   1       8.891   4.300  27.066  0.00  0.00    +0.002 A 
ATOM      7  CZ3 TRP A   1       7.604   4.881  27.115  0.00  0.00    +0.001 A 
ATOM      8  CE3 TRP A   1       7.363   6.129  26.514  0.00  0.00    +0.010 A 
ATOM      9  CD2 TRP A   1       8.429   6.760  25.874  0.00  0.00    +0.003 A 
ATOM     10  HE1 TRP A   1      11.560   6.825  25.012  0.00  0.00    +0.165 HD
ENDROOT
BRANCH   1  11
ATOM     11  CB  TRP A   1       7.429   9.001  25.054  0.00  0.00    +0.067 C 
BRANCH  11  12
ATOM     12  CA  TRP A   1       7.060   9.210  23.572  0.00  0.00    +0.165 C 
BRANCH  12  13
ATOM     13  N   TRP A   1       7.008  10.636  23.241  0.00  0.00    -0.318 NA
ATOM     14  H1  TRP A   1       7.323  10.759  22.250  0.00  0.00    +0.119 HD
ATOM     15  H2  TRP A   1       7.680  11.161  23.847  0.00  0.00    +0.119 HD
ENDBRANCH  12  13
BRANCH  12  16
ATOM     16  C   TRP A   1       5.742   8.566  23.243  0.00  0.00    +0.322 C 
ATOM     17  O   TRP A   1       4.780   9.262  22.818  0.00  0.00    -0.249 OA
BRANCH  16  18
ATOM     18  OXT TRP A   1       5.574   7.198  23.437  0.00  0.00    -0.479 OA
ATOM     19  HXT TRP A   1       6.000   6.730  24.228  0.00  0.00    +0.295 HD
ENDBRANCH  16  18
ENDBRANCH  12  16
ENDBRANCH  11  12
ENDBRANCH   1  11
TORSDOF 5
ENDMDL
MODEL 5
REMARK VINA RESULT:      -5.3     34.352     35.617
REMARK  Name = peptide_38_NWRILMPGEE
REMARK  5 active torsions:
REMARK  status: ('A' for Active; 'I' for Inactive)
REMARK    1  A    between atoms: N_1  and  CA_2
REMARK    2  A    between atoms: CA_2  and  CB_3
REMARK    3  A    between atoms: CA_2  and  C_13
REMARK    4  A    between atoms: CB_3  and  CG_4
REMARK    5  A    between atoms: C_13  and  OXT_15
REMARK                            x       y       z     vdW  Elec       q    Type
REMARK                         _______ _______ _______ _____ _____    ______ ____
ROOT
ATOM      1  CG  TRP A   1      12.182  -4.003  42.260  0.00  0.00    -0.020 A 
ATOM      2  CD1 TRP A   1      11.185  -3.064  42.012  0.00  0.00    +0.087 A 
ATOM      3  NE1 TRP A   1       9.965  -3.599  42.245  0.00  0.00    -0.360 N 
ATOM      4  CE2 TRP A   1      10.183  -4.870  42.626  0.00  0.00    +0.047 A 
ATOM      5  CZ2 TRP A   1       9.227  -5.829  42.957  0.00  0.00    +0.026 A 
ATOM      6  CH2 TRP A   1       9.679  -7.114  43.311  0.00  0.00    +0.002 A 
ATOM      7  CZ3 TRP A   1      11.061  -7.407  43.325  0.00  0.00    +0.001 A 
ATOM      8  CE3 TRP A   1      12.003  -6.420  42.985  0.00  0.00    +0.010 A 
ATOM      9  CD2 TRP A   1      11.524  -5.155  42.643  0.00  0.00    +0.003 A 
ATOM     10  HE1 TRP A   1       9.042  -3.123  42.135  0.00  0.00    +0.165 HD
ENDROOT
BRANCH   1  11
ATOM     11  CB  TRP A   1      13.659  -3.819  42.049  0.00  0.00    +0.067 C 
BRANCH  11  12
ATOM     12  CA  TRP A   1      14.242  -2.767  43.015  0.00  0.00    +0.165 C 
BRANCH  12  13
ATOM     13  N   TRP A   1      15.206  -1.904  42.329  0.00  0.00    -0.318 NA
ATOM     14  H1  TRP A   1      16.138  -2.011  42.793  0.00  0.00    +0.119 HD
ATOM     15  H2  TRP A   1      14.920  -0.903  42.439  0.00  0.00    +0.119 HD
ENDBRANCH  12  13
BRANCH  12  16
ATOM     16  C   TRP A   1      14.902  -3.421  44.198  0.00  0.00    +0.322 C 
ATOM     17  O   TRP A   1      15.004  -4.676  44.259  0.00  0.00    -0.249 OA
BRANCH  16  18
ATOM     18  OXT TRP A   1      15.374  -2.636  45.246  0.00  0.00    -0.479 OA
ATOM     19  HXT TRP A   1      16.340  -2.696  45.545  0.00  0.00    +0.295 HD
ENDBRANCH  16  18
ENDBRANCH  12  16
ENDBRANCH  11  12
ENDBRANCH   1  11
TORSDOF 5
ENDMDL
MODEL 6
REMARK VINA RESULT:      -5.0     21.644     23.064
REMARK  Name = peptide_38_NWRILMPGEE
REMARK  5 active torsions:
REMARK  status: ('A' for Active; 'I' for Inactive)
REMARK    1  A    between atoms: N_1  and  CA_2
REMARK    2  A    between atoms: CA_2  and  CB_3
REMARK    3  A    between atoms: CA_2  and  C_13
REMARK    4  A    between atoms: CB_3  and  CG_4
REMARK    5  A    between atoms: C_13  and  OXT_15
REMARK                            x       y       z     vdW  Elec       q    Type
REMARK                         _______ _______ _______ _____ _____    ______ ____
ROOT
ATOM      1  CG  TRP A   1       2.562  -0.152  24.185  0.00  0.00    -0.020 A 
ATOM      2  CD1 TRP A   1       3.603   0.770  24.160  0.00  0.00    +0.087 A 
ATOM      3  NE1 TRP A   1       4.796   0.138  24.250  0.00  0.00    -0.360 N 
ATOM      4  CE2 TRP A   1       4.514  -1.174  24.344  0.00  0.00    +0.047 A 
ATOM      5  CZ2 TRP A   1       5.420  -2.226  24.475  0.00  0.00    +0.026 A 
ATOM      6  CH2 TRP A   1       4.903  -3.530  24.577  0.00  0.00    +0.002 A 
ATOM      7  CZ3 TRP A   1       3.509  -3.751  24.548  0.00  0.00    +0.001 A 
ATOM      8  CE3 TRP A   1       2.618  -2.671  24.416  0.00  0.00    +0.010 A 
ATOM      9  CD2 TRP A   1       3.161  -1.390  24.312  0.00  0.00    +0.003 A 
ATOM     10  HE1 TRP A   1       5.740   0.582  24.261  0.00  0.00    +0.165 HD
ENDROOT
BRANCH   1  11
ATOM     11  CB  TRP A   1       1.091   0.157  24.179  0.00  0.00    +0.067 C 
BRANCH  11  12
ATOM     12  CA  TRP A   1       0.704   1.090  25.345  0.00  0.00    +0.165 C 
BRANCH  12  13
ATOM     13  N   TRP A   1       0.178   0.324  26.477  0.00  0.00    -0.318 NA
ATOM     14  H1  TRP A   1       0.706   0.598  27.338  0.00  0.00    +0.119 HD
ATOM     15  H2  TRP A   1       0.351  -0.696  26.320  0.00  0.00    +0.119 HD
ENDBRANCH  12  13
BRANCH  12  16
ATOM     16  C   TRP A   1      -0.311   2.111  24.910  0.00  0.00    +0.322 C 
ATOM     17  O   TRP A   1      -1.543   1.857  24.982  0.00  0.00    -0.249 OA
BRANCH  16  18
ATOM     18  OXT TRP A   1       0.115   3.333  24.397  0.00  0.00    -0.479 OA
ATOM     19  HXT TRP A   1       0.264   3.455  23.402  0.00  0.00    +0.295 HD
ENDBRANCH  16  18
ENDBRANCH  12  16
ENDBRANCH  11  12
ENDBRANCH   1  11
TORSDOF 5
ENDMDL
MODEL 7
REMARK VINA RESULT:      -5.0     32.836     34.611
REMARK  Name = peptide_38_NWRILMPGEE
REMARK  5 active torsions:
REMARK  status: ('A' for Active; 'I' for Inactive)
REMARK    1  A    between atoms: N_1  and  CA_2
REMARK    2  A    between atoms: CA_2  and  CB_3
REMARK    3  A    between atoms: CA_2  and  C_13
REMARK    4  A    between atoms: CB_3  and  CG_4
REMARK    5  A    between atoms: C_13  and  OXT_15
REMARK                            x       y       z     vdW  Elec       q    Type
REMARK                         _______ _______ _______ _____ _____    ______ ____
ROOT
ATOM      1  CG  TRP A   1      12.204  -3.870  42.365  0.00  0.00    -0.020 A 
ATOM      2  CD1 TRP A   1      11.160  -3.005  42.049  0.00  0.00    +0.087 A 
ATOM      3  NE1 TRP A   1       9.971  -3.638  42.167  0.00  0.00    -0.360 N 
ATOM      4  CE2 TRP A   1      10.256  -4.897  42.543  0.00  0.00    +0.047 A 
ATOM      5  CZ2 TRP A   1       9.354  -5.936  42.773  0.00  0.00    +0.026 A 
ATOM      6  CH2 TRP A   1       9.875  -7.190  43.142  0.00  0.00    +0.002 A 
ATOM      7  CZ3 TRP A   1      11.269  -7.376  43.269  0.00  0.00    +0.001 A 
ATOM      8  CE3 TRP A   1      12.155  -6.311  43.029  0.00  0.00    +0.010 A 
ATOM      9  CD2 TRP A   1      11.609  -5.079  42.670  0.00  0.00    +0.003 A 
ATOM     10  HE1 TRP A   1       9.026  -3.232  41.987  0.00  0.00    +0.165 HD
ENDROOT
BRANCH   1  11
ATOM     11  CB  TRP A   1      13.674  -3.567  42.286  0.00  0.00    +0.067 C 
BRANCH  11  12
ATOM     12  CA  TRP A   1      14.195  -3.665  40.838  0.00  0.00    +0.165 C 
BRANCH  12  13
ATOM     13  N   TRP A   1      15.024  -4.858  40.658  0.00  0.00    -0.318 NA
ATOM     14  H1  TRP A   1      14.473  -5.570  40.125  0.00  0.00    +0.119 HD
ATOM     15  H2  TRP A   1      15.245  -5.275  41.593  0.00  0.00    +0.119 HD
ENDBRANCH  12  13
BRANCH  12  16
ATOM     16  C   TRP A   1      14.982  -2.441  40.458  0.00  0.00    +0.322 C 
ATOM     17  O   TRP A   1      15.292  -2.229  39.255  0.00  0.00    -0.249 OA
BRANCH  16  18
ATOM     18  OXT TRP A   1      15.397  -1.553  41.447  0.00  0.00    -0.479 OA
ATOM     19  HXT TRP A   1      14.842  -1.409  42.282  0.00  0.00    +0.295 HD
ENDBRANCH  16  18
ENDBRANCH  12  16
ENDBRANCH  11  12
ENDBRANCH   1  11
TORSDOF 5
ENDMDL
MODEL 8
REMARK VINA RESULT:      -4.8     33.865     35.446
REMARK  Name = peptide_38_NWRILMPGEE
REMARK  5 active torsions:
REMARK  status: ('A' for Active; 'I' for Inactive)
REMARK    1  A    between atoms: N_1  and  CA_2
REMARK    2  A    between atoms: CA_2  and  CB_3
REMARK    3  A    between atoms: CA_2  and  C_13
REMARK    4  A    between atoms: CB_3  and  CG_4
REMARK    5  A    between atoms: C_13  and  OXT_15
REMARK                            x       y       z     vdW  Elec       q    Type
REMARK                         _______ _______ _______ _____ _____    ______ ____
ROOT
ATOM      1  CG  TRP A   1      11.166  -4.937  42.668  0.00  0.00    -0.020 A 
ATOM      2  CD1 TRP A   1      10.633  -3.690  42.354  0.00  0.00    +0.087 A 
ATOM      3  NE1 TRP A   1      11.559  -2.923  41.734  0.00  0.00    -0.360 N 
ATOM      4  CE2 TRP A   1      12.674  -3.671  41.665  0.00  0.00    +0.047 A 
ATOM      5  CZ2 TRP A   1      13.906  -3.304  41.126  0.00  0.00    +0.026 A 
ATOM      6  CH2 TRP A   1      14.953  -4.242  41.176  0.00  0.00    +0.002 A 
ATOM      7  CZ3 TRP A   1      14.748  -5.512  41.761  0.00  0.00    +0.001 A 
ATOM      8  CE3 TRP A   1      13.495  -5.855  42.299  0.00  0.00    +0.010 A 
ATOM      9  CD2 TRP A   1      12.475  -4.905  42.229  0.00  0.00    +0.003 A 
ATOM     10  HE1 TRP A   1      11.434  -1.945  41.394  0.00  0.00    +0.165 HD
ENDROOT
BRANCH   1  11
ATOM     11  CB  TRP A   1      10.480  -6.041  43.422  0.00  0.00    +0.067 C 
BRANCH  11  12
ATOM     12  CA  TRP A   1       8.975  -5.755  43.601  0.00  0.00    +0.165 C 
BRANCH  12  13
ATOM     13  N   TRP A   1       8.679  -5.346  44.975  0.00  0.00    -0.318 NA
ATOM     14  H1  TRP A   1       8.265  -6.161  45.484  0.00  0.00    +0.119 HD
ATOM     15  H2  TRP A   1       7.958  -4.588  44.967  0.00  0.00    +0.119 HD
ENDBRANCH  12  13
BRANCH  12  16
ATOM     16  C   TRP A   1       8.146  -6.957  43.242  0.00  0.00    +0.322 C 
ATOM     17  O   TRP A   1       7.391  -7.490  44.099  0.00  0.00    -0.249 OA
BRANCH  16  18
ATOM     18  OXT TRP A   1       8.238  -7.503  41.965  0.00  0.00    -0.479 OA
ATOM     19  HXT TRP A   1       8.851  -7.096  41.269  0.00  0.00    +0.295 HD
ENDBRANCH  16  18
ENDBRANCH  12  16
ENDBRANCH  11  12
ENDBRANCH   1  11
TORSDOF 5
ENDMDL
MODEL 9
REMARK VINA RESULT:      -4.8     14.282     15.826
REMARK  Name = peptide_38_NWRILMPGEE
REMARK  5 active torsions:
REMARK  status: ('A' for Active; 'I' for Inactive)
REMARK    1  A    between atoms: N_1  and  CA_2
REMARK    2  A    between atoms: CA_2  and  CB_3
REMARK    3  A    between atoms: CA_2  and  C_13
REMARK    4  A    between atoms: CB_3  and  CG_4
REMARK    5  A    between atoms: C_13  and  OXT_15
REMARK                            x       y       z     vdW  Elec       q    Type
REMARK                         _______ _______ _______ _____ _____    ______ ____
ROOT
ATOM      1  CG  TRP A   1       5.772  -1.970  11.941  0.00  0.00    -0.020 A 
ATOM      2  CD1 TRP A   1       6.945  -2.029  11.195  0.00  0.00    +0.087 A 
ATOM      3  NE1 TRP A   1       6.661  -2.108   9.875  0.00  0.00    -0.360 N 
ATOM      4  CE2 TRP A   1       5.320  -2.112   9.783  0.00  0.00    +0.047 A 
ATOM      5  CZ2 TRP A   1       4.552  -2.199   8.623  0.00  0.00    +0.026 A 
ATOM      6  CH2 TRP A   1       3.152  -2.206   8.759  0.00  0.00    +0.002 A 
ATOM      7  CZ3 TRP A   1       2.557  -2.129  10.038  0.00  0.00    +0.001 A 
ATOM      8  CE3 TRP A   1       3.357  -2.043  11.191  0.00  0.00    +0.010 A 
ATOM      9  CD2 TRP A   1       4.742  -2.033  11.024  0.00  0.00    +0.003 A 
ATOM     10  HE1 TRP A   1       7.348  -2.170   9.091  0.00  0.00    +0.165 HD
ENDROOT
BRANCH   1  11
ATOM     11  CB  TRP A   1       5.663  -1.949  13.440  0.00  0.00    +0.067 C 
BRANCH  11  12
ATOM     12  CA  TRP A   1       7.052  -1.899  14.108  0.00  0.00    +0.165 C 
BRANCH  12  13
ATOM     13  N   TRP A   1       7.364  -3.171  14.763  0.00  0.00    -0.318 NA
ATOM     14  H1  TRP A   1       6.549  -3.816  14.644  0.00  0.00    +0.119 HD
ATOM     15  H2  TRP A   1       7.486  -3.015  15.791  0.00  0.00    +0.119 HD
ENDBRANCH  12  13
BRANCH  12  16
ATOM     16  C   TRP A   1       7.135  -0.781  15.110  0.00  0.00    +0.322 C 
ATOM     17  O   TRP A   1       7.695  -0.963  16.225  0.00  0.00    -0.249 OA
BRANCH  16  18
ATOM     18  OXT TRP A   1       6.561   0.453  14.817  0.00  0.00    -0.479 OA
ATOM     19  HXT TRP A   1       6.043   0.965  15.521  0.00  0.00    +0.295 HD
ENDBRANCH  16  18
ENDBRANCH  12  16
ENDBRANCH  11  12
ENDBRANCH   1  11
TORSDOF 5
ENDMDL
