MODEL 1
REMARK VINA RESULT:      -6.2      0.000      0.000
REMARK  Name = peptide_49_HCYQHNWYDR
REMARK  5 active torsions:
REMARK  status: ('A' for Active; 'I' for Inactive)
REMARK    1  A    between atoms: N_1  and  CA_2
REMARK    2  A    between atoms: CA_2  and  CB_3
REMARK    3  A    between atoms: CA_2  and  C_13
REMARK    4  A    between atoms: CB_3  and  CG_4
REMARK    5  A    between atoms: C_13  and  OXT_15
REMARK                            x       y       z     vdW  Elec       q    Type
REMARK                         _______ _______ _______ _____ _____    ______ ____
ROOT
ATOM      1  CG  TRP A   1      18.364   5.326   9.126  0.00  0.00    -0.020 A 
ATOM      2  CD1 TRP A   1      18.150   3.951   9.116  0.00  0.00    +0.087 A 
ATOM      3  NE1 TRP A   1      19.330   3.290   9.152  0.00  0.00    -0.360 N 
ATOM      4  CE2 TRP A   1      20.285   4.236   9.172  0.00  0.00    +0.047 A 
ATOM      5  CZ2 TRP A   1      21.666   4.043   9.192  0.00  0.00    +0.026 A 
ATOM      6  CH2 TRP A   1      22.490   5.184   9.190  0.00  0.00    +0.002 A 
ATOM      7  CZ3 TRP A   1      21.921   6.477   9.166  0.00  0.00    +0.001 A 
ATOM      8  CE3 TRP A   1      20.525   6.641   9.144  0.00  0.00    +0.010 A 
ATOM      9  CD2 TRP A   1      19.735   5.492   9.152  0.00  0.00    +0.003 A 
ATOM     10  HE1 TRP A   1      19.468   2.255   9.149  0.00  0.00    +0.165 HD
ENDROOT
BRANCH   1  11
ATOM     11  CB  TRP A   1      17.314   6.396   9.022  0.00  0.00    +0.067 C 
BRANCH  11  12
ATOM     12  CA  TRP A   1      16.194   6.195  10.062  0.00  0.00    +0.165 C 
BRANCH  12  13
ATOM     13  N   TRP A   1      14.998   6.959   9.700  0.00  0.00    -0.318 NA
ATOM     14  H1  TRP A   1      14.959   7.817  10.297  0.00  0.00    +0.119 HD
ATOM     15  H2  TRP A   1      14.144   6.394   9.914  0.00  0.00    +0.119 HD
ENDBRANCH  12  13
BRANCH  12  16
ATOM     16  C   TRP A   1      16.650   6.593  11.438  0.00  0.00    +0.322 C 
ATOM     17  O   TRP A   1      17.334   7.639  11.606  0.00  0.00    -0.249 OA
BRANCH  16  18
ATOM     18  OXT TRP A   1      16.343   5.785  12.529  0.00  0.00    -0.479 OA
ATOM     19  HXT TRP A   1      15.491   5.235  12.544  0.00  0.00    +0.295 HD
ENDBRANCH  16  18
ENDBRANCH  12  16
ENDBRANCH  11  12
ENDBRANCH   1  11
TORSDOF 5
ENDMDL
MODEL 2
REMARK VINA RESULT:      -6.2     46.092     47.427
REMARK  Name = peptide_49_HCYQHNWYDR
REMARK  5 active torsions:
REMARK  status: ('A' for Active; 'I' for Inactive)
REMARK    1  A    between atoms: N_1  and  CA_2
REMARK    2  A    between atoms: CA_2  and  CB_3
REMARK    3  A    between atoms: CA_2  and  C_13
REMARK    4  A    between atoms: CB_3  and  CG_4
REMARK    5  A    between atoms: C_13  and  OXT_15
REMARK                            x       y       z     vdW  Elec       q    Type
REMARK                         _______ _______ _______ _____ _____    ______ ____
ROOT
ATOM      1  CG  TRP A   1      -9.516  -0.152  47.920  0.00  0.00    -0.020 A 
ATOM      2  CD1 TRP A   1      -9.866   1.194  47.884  0.00  0.00    +0.087 A 
ATOM      3  NE1 TRP A   1      -8.759   1.971  47.934  0.00  0.00    -0.360 N 
ATOM      4  CE2 TRP A   1      -7.716   1.126  48.014  0.00  0.00    +0.047 A 
ATOM      5  CZ2 TRP A   1      -6.365   1.457  48.107  0.00  0.00    +0.026 A 
ATOM      6  CH2 TRP A   1      -5.435   0.406  48.202  0.00  0.00    +0.002 A 
ATOM      7  CZ3 TRP A   1      -5.871  -0.937  48.204  0.00  0.00    +0.001 A 
ATOM      8  CE3 TRP A   1      -7.241  -1.242  48.111  0.00  0.00    +0.010 A 
ATOM      9  CD2 TRP A   1      -8.138  -0.179  48.013  0.00  0.00    +0.003 A 
ATOM     10  HE1 TRP A   1      -8.727   3.014  47.928  0.00  0.00    +0.165 HD
ENDROOT
BRANCH   1  11
ATOM     11  CB  TRP A   1     -10.459  -1.322  47.957  0.00  0.00    +0.067 C 
BRANCH  11  12
ATOM     12  CA  TRP A   1     -11.746  -1.038  47.157  0.00  0.00    +0.165 C 
BRANCH  12  13
ATOM     13  N   TRP A   1     -12.924  -1.545  47.863  0.00  0.00    -0.318 NA
ATOM     14  H1  TRP A   1     -12.609  -2.014  48.743  0.00  0.00    +0.119 HD
ATOM     15  H2  TRP A   1     -13.397  -2.273  47.278  0.00  0.00    +0.119 HD
ENDBRANCH  12  13
BRANCH  12  16
ATOM     16  C   TRP A   1     -11.679  -1.647  45.783  0.00  0.00    +0.322 C 
ATOM     17  O   TRP A   1     -11.650  -2.900  45.641  0.00  0.00    -0.249 OA
BRANCH  16  18
ATOM     18  OXT TRP A   1     -11.618  -0.822  44.664  0.00  0.00    -0.479 OA
ATOM     19  HXT TRP A   1     -12.066   0.087  44.664  0.00  0.00    +0.295 HD
ENDBRANCH  16  18
ENDBRANCH  12  16
ENDBRANCH  11  12
ENDBRANCH   1  11
TORSDOF 5
ENDMDL
MODEL 3
REMARK VINA RESULT:      -5.6      3.891      5.549
REMARK  Name = peptide_49_HCYQHNWYDR
REMARK  5 active torsions:
REMARK  status: ('A' for Active; 'I' for Inactive)
REMARK    1  A    between atoms: N_1  and  CA_2
REMARK    2  A    between atoms: CA_2  and  CB_3
REMARK    3  A    between atoms: CA_2  and  C_13
REMARK    4  A    between atoms: CB_3  and  CG_4
REMARK    5  A    between atoms: C_13  and  OXT_15
REMARK                            x       y       z     vdW  Elec       q    Type
REMARK                         _______ _______ _______ _____ _____    ______ ____
ROOT
ATOM      1  CG  TRP A   1      21.439   5.496   8.649  0.00  0.00    -0.020 A 
ATOM      2  CD1 TRP A   1      21.730   4.138   8.730  0.00  0.00    +0.087 A 
ATOM      3  NE1 TRP A   1      20.621   3.436   9.055  0.00  0.00    -0.360 N 
ATOM      4  CE2 TRP A   1      19.636   4.341   9.192  0.00  0.00    +0.047 A 
ATOM      5  CZ2 TRP A   1      18.308   4.099   9.541  0.00  0.00    +0.026 A 
ATOM      6  CH2 TRP A   1      17.443   5.204   9.648  0.00  0.00    +0.002 A 
ATOM      7  CZ3 TRP A   1      17.921   6.512   9.409  0.00  0.00    +0.001 A 
ATOM      8  CE3 TRP A   1      19.267   6.726   9.060  0.00  0.00    +0.010 A 
ATOM      9  CD2 TRP A   1      20.098   5.610   8.957  0.00  0.00    +0.003 A 
ATOM     10  HE1 TRP A   1      20.551   2.403   9.187  0.00  0.00    +0.165 HD
ENDROOT
BRANCH   1  11
ATOM     11  CB  TRP A   1      22.416   6.608   8.385  0.00  0.00    +0.067 C 
BRANCH  11  12
ATOM     12  CA  TRP A   1      23.415   6.773   9.547  0.00  0.00    +0.165 C 
BRANCH  12  13
ATOM     13  N   TRP A   1      22.854   7.613  10.607  0.00  0.00    -0.318 NA
ATOM     14  H1  TRP A   1      22.077   8.185  10.201  0.00  0.00    +0.119 HD
ATOM     15  H2  TRP A   1      23.584   8.281  10.948  0.00  0.00    +0.119 HD
ENDBRANCH  12  13
BRANCH  12  16
ATOM     16  C   TRP A   1      24.714   7.362   9.070  0.00  0.00    +0.322 C 
ATOM     17  O   TRP A   1      24.790   7.901   7.933  0.00  0.00    -0.249 OA
BRANCH  16  18
ATOM     18  OXT TRP A   1      25.846   7.284   9.876  0.00  0.00    -0.479 OA
ATOM     19  HXT TRP A   1      25.765   7.089  10.867  0.00  0.00    +0.295 HD
ENDBRANCH  16  18
ENDBRANCH  12  16
ENDBRANCH  11  12
ENDBRANCH   1  11
TORSDOF 5
ENDMDL
MODEL 4
REMARK VINA RESULT:      -5.3     18.051     19.095
REMARK  Name = peptide_49_HCYQHNWYDR
REMARK  5 active torsions:
REMARK  status: ('A' for Active; 'I' for Inactive)
REMARK    1  A    between atoms: N_1  and  CA_2
REMARK    2  A    between atoms: CA_2  and  CB_3
REMARK    3  A    between atoms: CA_2  and  C_13
REMARK    4  A    between atoms: CB_3  and  CG_4
REMARK    5  A    between atoms: C_13  and  OXT_15
REMARK                            x       y       z     vdW  Elec       q    Type
REMARK                         _______ _______ _______ _____ _____    ______ ____
ROOT
ATOM      1  CG  TRP A   1       8.546   8.053  25.225  0.00  0.00    -0.020 A 
ATOM      2  CD1 TRP A   1       9.888   8.197  24.886  0.00  0.00    +0.087 A 
ATOM      3  NE1 TRP A   1      10.593   7.111  25.278  0.00  0.00    -0.360 N 
ATOM      4  CE2 TRP A   1       9.709   6.290  25.872  0.00  0.00    +0.047 A 
ATOM      5  CZ2 TRP A   1       9.968   5.050  26.455  0.00  0.00    +0.026 A 
ATOM      6  CH2 TRP A   1       8.890   4.362  27.043  0.00  0.00    +0.002 A 
ATOM      7  CZ3 TRP A   1       7.594   4.924  27.037  0.00  0.00    +0.001 A 
ATOM      8  CE3 TRP A   1       7.363   6.177  26.443  0.00  0.00    +0.010 A 
ATOM      9  CD2 TRP A   1       8.450   6.832  25.864  0.00  0.00    +0.003 A 
ATOM     10  HE1 TRP A   1      11.617   6.953  25.156  0.00  0.00    +0.165 HD
ENDROOT
BRANCH   1  11
ATOM     11  CB  TRP A   1       7.458   9.070  25.027  0.00  0.00    +0.067 C 
BRANCH  11  12
ATOM     12  CA  TRP A   1       7.081   9.214  23.538  0.00  0.00    +0.165 C 
BRANCH  12  13
ATOM     13  N   TRP A   1       7.040  10.623  23.142  0.00  0.00    -0.318 NA
ATOM     14  H1  TRP A   1       8.003  11.023  23.230  0.00  0.00    +0.119 HD
ATOM     15  H2  TRP A   1       6.424  11.155  23.801  0.00  0.00    +0.119 HD
ENDBRANCH  12  13
BRANCH  12  16
ATOM     16  C   TRP A   1       5.755   8.569  23.247  0.00  0.00    +0.322 C 
ATOM     17  O   TRP A   1       4.783   9.261  22.841  0.00  0.00    -0.249 OA
BRANCH  16  18
ATOM     18  OXT TRP A   1       5.591   7.202  23.456  0.00  0.00    -0.479 OA
ATOM     19  HXT TRP A   1       5.876   6.773  24.329  0.00  0.00    +0.295 HD
ENDBRANCH  16  18
ENDBRANCH  12  16
ENDBRANCH  11  12
ENDBRANCH   1  11
TORSDOF 5
ENDMDL
MODEL 5
REMARK VINA RESULT:      -5.3     34.365     35.632
REMARK  Name = peptide_49_HCYQHNWYDR
REMARK  5 active torsions:
REMARK  status: ('A' for Active; 'I' for Inactive)
REMARK    1  A    between atoms: N_1  and  CA_2
REMARK    2  A    between atoms: CA_2  and  CB_3
REMARK    3  A    between atoms: CA_2  and  C_13
REMARK    4  A    between atoms: CB_3  and  CG_4
REMARK    5  A    between atoms: C_13  and  OXT_15
REMARK                            x       y       z     vdW  Elec       q    Type
REMARK                         _______ _______ _______ _____ _____    ______ ____
ROOT
ATOM      1  CG  TRP A   1      12.185  -4.004  42.264  0.00  0.00    -0.020 A 
ATOM      2  CD1 TRP A   1      11.190  -3.063  42.016  0.00  0.00    +0.087 A 
ATOM      3  NE1 TRP A   1       9.968  -3.596  42.250  0.00  0.00    -0.360 N 
ATOM      4  CE2 TRP A   1      10.185  -4.867  42.630  0.00  0.00    +0.047 A 
ATOM      5  CZ2 TRP A   1       9.227  -5.825  42.961  0.00  0.00    +0.026 A 
ATOM      6  CH2 TRP A   1       9.676  -7.110  43.315  0.00  0.00    +0.002 A 
ATOM      7  CZ3 TRP A   1      11.058  -7.407  43.329  0.00  0.00    +0.001 A 
ATOM      8  CE3 TRP A   1      12.001  -6.421  42.989  0.00  0.00    +0.010 A 
ATOM      9  CD2 TRP A   1      11.525  -5.155  42.647  0.00  0.00    +0.003 A 
ATOM     10  HE1 TRP A   1       9.046  -3.119  42.140  0.00  0.00    +0.165 HD
ENDROOT
BRANCH   1  11
ATOM     11  CB  TRP A   1      13.662  -3.822  42.053  0.00  0.00    +0.067 C 
BRANCH  11  12
ATOM     12  CA  TRP A   1      14.247  -2.770  43.016  0.00  0.00    +0.165 C 
BRANCH  12  13
ATOM     13  N   TRP A   1      15.210  -1.908  42.329  0.00  0.00    -0.318 NA
ATOM     14  H1  TRP A   1      15.405  -2.313  41.384  0.00  0.00    +0.119 HD
ATOM     15  H2  TRP A   1      16.115  -1.904  42.855  0.00  0.00    +0.119 HD
ENDBRANCH  12  13
BRANCH  12  16
ATOM     16  C   TRP A   1      14.908  -3.423  44.199  0.00  0.00    +0.322 C 
ATOM     17  O   TRP A   1      15.014  -4.678  44.259  0.00  0.00    -0.249 OA
BRANCH  16  18
ATOM     18  OXT TRP A   1      15.377  -2.638  45.249  0.00  0.00    -0.479 OA
ATOM     19  HXT TRP A   1      14.778  -2.409  46.034  0.00  0.00    +0.295 HD
ENDBRANCH  16  18
ENDBRANCH  12  16
ENDBRANCH  11  12
ENDBRANCH   1  11
TORSDOF 5
ENDMDL
MODEL 6
REMARK VINA RESULT:      -5.2     46.709     47.454
REMARK  Name = peptide_49_HCYQHNWYDR
REMARK  5 active torsions:
REMARK  status: ('A' for Active; 'I' for Inactive)
REMARK    1  A    between atoms: N_1  and  CA_2
REMARK    2  A    between atoms: CA_2  and  CB_3
REMARK    3  A    between atoms: CA_2  and  C_13
REMARK    4  A    between atoms: CB_3  and  CG_4
REMARK    5  A    between atoms: C_13  and  OXT_15
REMARK                            x       y       z     vdW  Elec       q    Type
REMARK                         _______ _______ _______ _____ _____    ______ ____
ROOT
ATOM      1  CG  TRP A   1      -9.492  -1.372  47.499  0.00  0.00    -0.020 A 
ATOM      2  CD1 TRP A   1      -9.020  -2.670  47.667  0.00  0.00    +0.087 A 
ATOM      3  NE1 TRP A   1      -7.744  -2.655  48.115  0.00  0.00    -0.360 N 
ATOM      4  CE2 TRP A   1      -7.403  -1.358  48.220  0.00  0.00    +0.047 A 
ATOM      5  CZ2 TRP A   1      -6.176  -0.837  48.627  0.00  0.00    +0.026 A 
ATOM      6  CH2 TRP A   1      -6.028   0.562  48.645  0.00  0.00    +0.002 A 
ATOM      7  CZ3 TRP A   1      -7.098   1.399  48.259  0.00  0.00    +0.001 A 
ATOM      8  CE3 TRP A   1      -8.325   0.846  47.851  0.00  0.00    +0.010 A 
ATOM      9  CD2 TRP A   1      -8.442  -0.544  47.849  0.00  0.00    +0.003 A 
ATOM     10  HE1 TRP A   1      -7.144  -3.483  48.321  0.00  0.00    +0.165 HD
ENDROOT
BRANCH   1  11
ATOM     11  CB  TRP A   1     -10.832  -0.969  46.951  0.00  0.00    +0.067 C 
BRANCH  11  12
ATOM     12  CA  TRP A   1     -11.224  -1.822  45.728  0.00  0.00    +0.165 C 
BRANCH  12  13
ATOM     13  N   TRP A   1     -11.558  -0.975  44.582  0.00  0.00    -0.318 NA
ATOM     14  H1  TRP A   1     -12.412  -0.417  44.818  0.00  0.00    +0.119 HD
ATOM     15  H2  TRP A   1     -11.800  -1.576  43.760  0.00  0.00    +0.119 HD
ENDBRANCH  12  13
BRANCH  12  16
ATOM     16  C   TRP A   1     -12.384  -2.726  46.044  0.00  0.00    +0.322 C 
ATOM     17  O   TRP A   1     -12.778  -2.866  47.233  0.00  0.00    -0.249 OA
BRANCH  16  18
ATOM     18  OXT TRP A   1     -13.006  -3.435  45.020  0.00  0.00    -0.479 OA
ATOM     19  HXT TRP A   1     -13.766  -3.024  44.492  0.00  0.00    +0.295 HD
ENDBRANCH  16  18
ENDBRANCH  12  16
ENDBRANCH  11  12
ENDBRANCH   1  11
TORSDOF 5
ENDMDL
MODEL 7
REMARK VINA RESULT:      -5.2      3.122      5.455
REMARK  Name = peptide_49_HCYQHNWYDR
REMARK  5 active torsions:
REMARK  status: ('A' for Active; 'I' for Inactive)
REMARK    1  A    between atoms: N_1  and  CA_2
REMARK    2  A    between atoms: CA_2  and  CB_3
REMARK    3  A    between atoms: CA_2  and  C_13
REMARK    4  A    between atoms: CB_3  and  CG_4
REMARK    5  A    between atoms: C_13  and  OXT_15
REMARK                            x       y       z     vdW  Elec       q    Type
REMARK                         _______ _______ _______ _____ _____    ______ ____
ROOT
ATOM      1  CG  TRP A   1      19.793   7.459   9.670  0.00  0.00    -0.020 A 
ATOM      2  CD1 TRP A   1      19.532   8.635  10.367  0.00  0.00    +0.087 A 
ATOM      3  NE1 TRP A   1      18.249   8.656  10.794  0.00  0.00    -0.360 N 
ATOM      4  CE2 TRP A   1      17.695   7.509  10.362  0.00  0.00    +0.047 A 
ATOM      5  CZ2 TRP A   1      16.379   7.086  10.541  0.00  0.00    +0.026 A 
ATOM      6  CH2 TRP A   1      16.003   5.850   9.984  0.00  0.00    +0.002 A 
ATOM      7  CZ3 TRP A   1      16.941   5.075   9.266  0.00  0.00    +0.001 A 
ATOM      8  CE3 TRP A   1      18.262   5.527   9.099  0.00  0.00    +0.010 A 
ATOM      9  CD2 TRP A   1      18.605   6.754   9.668  0.00  0.00    +0.003 A 
ATOM     10  HE1 TRP A   1      17.782   9.417  11.335  0.00  0.00    +0.165 HD
ENDROOT
BRANCH   1  11
ATOM     11  CB  TRP A   1      21.076   7.093   8.978  0.00  0.00    +0.067 C 
BRANCH  11  12
ATOM     12  CA  TRP A   1      21.903   6.092   9.810  0.00  0.00    +0.165 C 
BRANCH  12  13
ATOM     13  N   TRP A   1      23.253   6.605  10.055  0.00  0.00    -0.318 NA
ATOM     14  H1  TRP A   1      23.343   6.831  11.073  0.00  0.00    +0.119 HD
ATOM     15  H2  TRP A   1      23.390   7.497   9.526  0.00  0.00    +0.119 HD
ENDBRANCH  12  13
BRANCH  12  16
ATOM     16  C   TRP A   1      21.987   4.755   9.127  0.00  0.00    +0.322 C 
ATOM     17  O   TRP A   1      21.413   4.566   8.021  0.00  0.00    -0.249 OA
BRANCH  16  18
ATOM     18  OXT TRP A   1      22.677   3.711   9.736  0.00  0.00    -0.479 OA
ATOM     19  HXT TRP A   1      22.262   2.790   9.815  0.00  0.00    +0.295 HD
ENDBRANCH  16  18
ENDBRANCH  12  16
ENDBRANCH  11  12
ENDBRANCH   1  11
TORSDOF 5
ENDMDL
MODEL 8
REMARK VINA RESULT:      -5.2     18.570     20.040
REMARK  Name = peptide_49_HCYQHNWYDR
REMARK  5 active torsions:
REMARK  status: ('A' for Active; 'I' for Inactive)
REMARK    1  A    between atoms: N_1  and  CA_2
REMARK    2  A    between atoms: CA_2  and  CB_3
REMARK    3  A    between atoms: CA_2  and  C_13
REMARK    4  A    between atoms: CB_3  and  CG_4
REMARK    5  A    between atoms: C_13  and  OXT_15
REMARK                            x       y       z     vdW  Elec       q    Type
REMARK                         _______ _______ _______ _____ _____    ______ ____
ROOT
ATOM      1  CG  TRP A   1       8.401   8.037  25.244  0.00  0.00    -0.020 A 
ATOM      2  CD1 TRP A   1       9.744   8.317  25.011  0.00  0.00    +0.087 A 
ATOM      3  NE1 TRP A   1      10.523   7.311  25.474  0.00  0.00    -0.360 N 
ATOM      4  CE2 TRP A   1       9.683   6.407  26.006  0.00  0.00    +0.047 A 
ATOM      5  CZ2 TRP A   1      10.018   5.203  26.626  0.00  0.00    +0.026 A 
ATOM      6  CH2 TRP A   1       8.973   4.411  27.135  0.00  0.00    +0.002 A 
ATOM      7  CZ3 TRP A   1       7.631   4.836  27.017  0.00  0.00    +0.001 A 
ATOM      8  CE3 TRP A   1       7.322   6.055  26.389  0.00  0.00    +0.010 A 
ATOM      9  CD2 TRP A   1       8.379   6.816  25.889  0.00  0.00    +0.003 A 
ATOM     10  HE1 TRP A   1      11.565   7.260  25.437  0.00  0.00    +0.165 HD
ENDROOT
BRANCH   1  11
ATOM     11  CB  TRP A   1       7.234   8.935  24.945  0.00  0.00    +0.067 C 
BRANCH  11  12
ATOM     12  CA  TRP A   1       6.835   9.775  26.174  0.00  0.00    +0.165 C 
BRANCH  12  13
ATOM     13  N   TRP A   1       7.942   9.869  27.127  0.00  0.00    -0.318 NA
ATOM     14  H1  TRP A   1       8.694   9.204  26.831  0.00  0.00    +0.119 HD
ATOM     15  H2  TRP A   1       7.616   9.566  28.074  0.00  0.00    +0.119 HD
ENDBRANCH  12  13
BRANCH  12  16
ATOM     16  C   TRP A   1       5.627   9.199  26.859  0.00  0.00    +0.322 C 
ATOM     17  O   TRP A   1       4.775   8.539  26.204  0.00  0.00    -0.249 OA
BRANCH  16  18
ATOM     18  OXT TRP A   1       5.432   9.421  28.219  0.00  0.00    -0.479 OA
ATOM     19  HXT TRP A   1       5.368   8.646  28.869  0.00  0.00    +0.295 HD
ENDBRANCH  16  18
ENDBRANCH  12  16
ENDBRANCH  11  12
ENDBRANCH   1  11
TORSDOF 5
ENDMDL
MODEL 9
REMARK VINA RESULT:      -5.1      3.219      5.306
REMARK  Name = peptide_49_HCYQHNWYDR
REMARK  5 active torsions:
REMARK  status: ('A' for Active; 'I' for Inactive)
REMARK    1  A    between atoms: N_1  and  CA_2
REMARK    2  A    between atoms: CA_2  and  CB_3
REMARK    3  A    between atoms: CA_2  and  C_13
REMARK    4  A    between atoms: CB_3  and  CG_4
REMARK    5  A    between atoms: C_13  and  OXT_15
REMARK                            x       y       z     vdW  Elec       q    Type
REMARK                         _______ _______ _______ _____ _____    ______ ____
ROOT
ATOM      1  CG  TRP A   1      19.836   5.968   9.180  0.00  0.00    -0.020 A 
ATOM      2  CD1 TRP A   1      19.811   4.632   9.572  0.00  0.00    +0.087 A 
ATOM      3  NE1 TRP A   1      18.543   4.241   9.836  0.00  0.00    -0.360 N 
ATOM      4  CE2 TRP A   1      17.771   5.322   9.626  0.00  0.00    +0.047 A 
ATOM      5  CZ2 TRP A   1      16.389   5.417   9.786  0.00  0.00    +0.026 A 
ATOM      6  CH2 TRP A   1      15.780   6.659   9.528  0.00  0.00    +0.002 A 
ATOM      7  CZ3 TRP A   1      16.558   7.766   9.124  0.00  0.00    +0.001 A 
ATOM      8  CE3 TRP A   1      17.950   7.642   8.972  0.00  0.00    +0.010 A 
ATOM      9  CD2 TRP A   1      18.524   6.396   9.229  0.00  0.00    +0.003 A 
ATOM     10  HE1 TRP A   1      18.234   3.296  10.153  0.00  0.00    +0.165 HD
ENDROOT
BRANCH   1  11
ATOM     11  CB  TRP A   1      21.057   6.789   8.873  0.00  0.00    +0.067 C 
BRANCH  11  12
ATOM     12  CA  TRP A   1      22.166   6.570   9.922  0.00  0.00    +0.165 C 
BRANCH  12  13
ATOM     13  N   TRP A   1      22.659   7.849  10.438  0.00  0.00    -0.318 NA
ATOM     14  H1  TRP A   1      23.618   8.015  10.053  0.00  0.00    +0.119 HD
ATOM     15  H2  TRP A   1      22.749   7.796  11.479  0.00  0.00    +0.119 HD
ENDBRANCH  12  13
BRANCH  12  16
ATOM     16  C   TRP A   1      23.310   5.781   9.349  0.00  0.00    +0.322 C 
ATOM     17  O   TRP A   1      23.276   4.521   9.342  0.00  0.00    -0.249 OA
BRANCH  16  18
ATOM     18  OXT TRP A   1      24.426   6.446   8.850  0.00  0.00    -0.479 OA
ATOM     19  HXT TRP A   1      24.834   6.182   7.961  0.00  0.00    +0.295 HD
ENDBRANCH  16  18
ENDBRANCH  12  16
ENDBRANCH  11  12
ENDBRANCH   1  11
TORSDOF 5
ENDMDL
