MODEL 1
REMARK VINA RESULT:      -5.0      0.000      0.000
REMARK  Name = peptide_2_LSRKEQGNYP
REMARK  6 active torsions:
REMARK  status: ('A' for Active; 'I' for Inactive)
REMARK    1  A    between atoms: N_1  and  CA_2
REMARK    2  A    between atoms: CA_2  and  CB_3
REMARK    3  A    between atoms: CA_2  and  C_11
REMARK    4  A    between atoms: CB_3  and  CG_4
REMARK    5  A    between atoms: CZ_7  and  OH_8
REMARK    6  A    between atoms: C_11  and  OXT_13
REMARK                            x       y       z     vdW  Elec       q    Type
REMARK                         _______ _______ _______ _____ _____    ______ ____
ROOT
ATOM      1  CB  TYR A   1     -10.590  -2.292  47.519  0.00  0.00    +0.065 C 
ENDROOT
BRANCH   1   2
ATOM      2  CG  TYR A   1      -9.678  -1.105  47.693  0.00  0.00    -0.045 A 
ATOM      3  CD1 TYR A   1      -8.306  -1.289  47.929  0.00  0.00    +0.007 A 
ATOM      4  CE1 TYR A   1      -7.468  -0.186  48.118  0.00  0.00    +0.045 A 
ATOM      5  CZ  TYR A   1      -7.992   1.110  48.081  0.00  0.00    +0.117 A 
ATOM      6  CE2 TYR A   1      -9.361   1.300  47.855  0.00  0.00    +0.045 A 
ATOM      7  CD2 TYR A   1     -10.202   0.198  47.666  0.00  0.00    +0.007 A 
BRANCH   5   8
ATOM      8  OH  TYR A   1      -7.145   2.200  48.271  0.00  0.00    -0.507 OA
ATOM      9  HH  TYR A   1      -7.059   2.652  49.173  0.00  0.00    +0.292 HD
ENDBRANCH   5   8
ENDBRANCH   1   2
BRANCH   1  10
ATOM     10  CA  TYR A   1     -11.746  -1.973  46.555  0.00  0.00    +0.165 C 
BRANCH  10  11
ATOM     11  N   TYR A   1     -12.868  -2.890  46.773  0.00  0.00    -0.318 NA
ATOM     12  H1  TYR A   1     -13.379  -2.619  47.645  0.00  0.00    +0.119 HD
ATOM     13  H2  TYR A   1     -12.490  -3.855  46.917  0.00  0.00    +0.119 HD
ENDBRANCH  10  11
BRANCH  10  14
ATOM     14  C   TYR A   1     -11.275  -2.035  45.127  0.00  0.00    +0.322 C 
ATOM     15  O   TYR A   1     -10.619  -3.028  44.714  0.00  0.00    -0.249 OA
BRANCH  14  16
ATOM     16  OXT TYR A   1     -11.562  -0.986  44.258  0.00  0.00    -0.479 OA
ATOM     17  HXT TYR A   1     -12.469  -0.914  43.812  0.00  0.00    +0.295 HD
ENDBRANCH  14  16
ENDBRANCH  10  14
ENDBRANCH   1  10
TORSDOF 6
ENDMDL
MODEL 2
REMARK VINA RESULT:      -5.0     25.407     26.245
REMARK  Name = peptide_2_LSRKEQGNYP
REMARK  6 active torsions:
REMARK  status: ('A' for Active; 'I' for Inactive)
REMARK    1  A    between atoms: N_1  and  CA_2
REMARK    2  A    between atoms: CA_2  and  CB_3
REMARK    3  A    between atoms: CA_2  and  C_11
REMARK    4  A    between atoms: CB_3  and  CG_4
REMARK    5  A    between atoms: CZ_7  and  OH_8
REMARK    6  A    between atoms: C_11  and  OXT_13
REMARK                            x       y       z     vdW  Elec       q    Type
REMARK                         _______ _______ _______ _____ _____    ______ ____
ROOT
ATOM      1  CB  TYR A   1       5.993  -3.637  26.999  0.00  0.00    +0.065 C 
ENDROOT
BRANCH   1   2
ATOM      2  CG  TYR A   1       5.498  -2.773  25.869  0.00  0.00    -0.045 A 
ATOM      3  CD1 TYR A   1       5.957  -1.452  25.727  0.00  0.00    +0.007 A 
ATOM      4  CE1 TYR A   1       5.475  -0.645  24.693  0.00  0.00    +0.045 A 
ATOM      5  CZ  TYR A   1       4.525  -1.144  23.796  0.00  0.00    +0.117 A 
ATOM      6  CE2 TYR A   1       4.056  -2.456  23.938  0.00  0.00    +0.045 A 
ATOM      7  CD2 TYR A   1       4.537  -3.266  24.971  0.00  0.00    +0.007 A 
BRANCH   5   8
ATOM      8  OH  TYR A   1       4.052  -0.327  22.770  0.00  0.00    -0.507 OA
ATOM      9  HH  TYR A   1       4.281   0.659  22.731  0.00  0.00    +0.292 HD
ENDBRANCH   5   8
ENDBRANCH   1   2
BRANCH   1  10
ATOM     10  CA  TYR A   1       6.872  -2.834  27.975  0.00  0.00    +0.165 C 
BRANCH  10  11
ATOM     11  N   TYR A   1       8.288  -3.155  27.780  0.00  0.00    -0.318 NA
ATOM     12  H1  TYR A   1       8.670  -3.598  28.648  0.00  0.00    +0.119 HD
ATOM     13  H2  TYR A   1       8.816  -2.265  27.625  0.00  0.00    +0.119 HD
ENDBRANCH  10  11
BRANCH  10  14
ATOM     14  C   TYR A   1       6.455  -3.096  29.398  0.00  0.00    +0.322 C 
ATOM     15  O   TYR A   1       5.887  -4.177  29.707  0.00  0.00    -0.249 OA
BRANCH  14  16
ATOM     16  OXT TYR A   1       6.695  -2.136  30.377  0.00  0.00    -0.479 OA
ATOM     17  HXT TYR A   1       5.928  -1.690  30.867  0.00  0.00    +0.295 HD
ENDBRANCH  14  16
ENDBRANCH  10  14
ENDBRANCH   1  10
TORSDOF 6
ENDMDL
MODEL 3
REMARK VINA RESULT:      -5.0     46.237     46.819
REMARK  Name = peptide_2_LSRKEQGNYP
REMARK  6 active torsions:
REMARK  status: ('A' for Active; 'I' for Inactive)
REMARK    1  A    between atoms: N_1  and  CA_2
REMARK    2  A    between atoms: CA_2  and  CB_3
REMARK    3  A    between atoms: CA_2  and  C_11
REMARK    4  A    between atoms: CB_3  and  CG_4
REMARK    5  A    between atoms: CZ_7  and  OH_8
REMARK    6  A    between atoms: C_11  and  OXT_13
REMARK                            x       y       z     vdW  Elec       q    Type
REMARK                         _______ _______ _______ _____ _____    ______ ____
ROOT
ATOM      1  CB  TYR A   1      17.177   7.459   9.675  0.00  0.00    +0.065 C 
ENDROOT
BRANCH   1   2
ATOM      2  CG  TYR A   1      18.151   6.324   9.492  0.00  0.00    -0.045 A 
ATOM      3  CD1 TYR A   1      19.530   6.575   9.407  0.00  0.00    +0.007 A 
ATOM      4  CE1 TYR A   1      20.428   5.522   9.210  0.00  0.00    +0.045 A 
ATOM      5  CZ  TYR A   1      19.958   4.210   9.087  0.00  0.00    +0.117 A 
ATOM      6  CE2 TYR A   1      18.583   3.955   9.160  0.00  0.00    +0.045 A 
ATOM      7  CD2 TYR A   1      17.683   5.006   9.358  0.00  0.00    +0.007 A 
BRANCH   5   8
ATOM      8  OH  TYR A   1      20.865   3.170   8.890  0.00  0.00    -0.507 OA
ATOM      9  HH  TYR A   1      21.184   2.915   7.962  0.00  0.00    +0.292 HD
ENDBRANCH   5   8
ENDBRANCH   1   2
BRANCH   1  10
ATOM     10  CA  TYR A   1      16.111   7.118  10.731  0.00  0.00    +0.165 C 
BRANCH  10  11
ATOM     11  N   TYR A   1      15.037   8.114  10.722  0.00  0.00    -0.318 NA
ATOM     12  H1  TYR A   1      14.623   8.193  11.680  0.00  0.00    +0.119 HD
ATOM     13  H2  TYR A   1      14.280   7.786  10.079  0.00  0.00    +0.119 HD
ENDBRANCH  10  11
BRANCH  10  14
ATOM     14  C   TYR A   1      16.736   7.018  12.097  0.00  0.00    +0.322 C 
ATOM     15  O   TYR A   1      17.509   7.923  12.513  0.00  0.00    -0.249 OA
BRANCH  14  16
ATOM     16  OXT TYR A   1      16.461   5.918  12.904  0.00  0.00    -0.479 OA
ATOM     17  HXT TYR A   1      16.567   5.972  13.911  0.00  0.00    +0.295 HD
ENDBRANCH  14  16
ENDBRANCH  10  14
ENDBRANCH   1  10
TORSDOF 6
ENDMDL
MODEL 4
REMARK VINA RESULT:      -4.9     47.417     47.951
REMARK  Name = peptide_2_LSRKEQGNYP
REMARK  6 active torsions:
REMARK  status: ('A' for Active; 'I' for Inactive)
REMARK    1  A    between atoms: N_1  and  CA_2
REMARK    2  A    between atoms: CA_2  and  CB_3
REMARK    3  A    between atoms: CA_2  and  C_11
REMARK    4  A    between atoms: CB_3  and  CG_4
REMARK    5  A    between atoms: CZ_7  and  OH_8
REMARK    6  A    between atoms: C_11  and  OXT_13
REMARK                            x       y       z     vdW  Elec       q    Type
REMARK                         _______ _______ _______ _____ _____    ______ ____
ROOT
ATOM      1  CB  TYR A   1      17.853   5.196   9.270  0.00  0.00    +0.065 C 
ENDROOT
BRANCH   1   2
ATOM      2  CG  TYR A   1      19.359   5.239   9.249  0.00  0.00    -0.045 A 
ATOM      3  CD1 TYR A   1      20.105   4.050   9.184  0.00  0.00    +0.007 A 
ATOM      4  CE1 TYR A   1      21.502   4.093   9.193  0.00  0.00    +0.045 A 
ATOM      5  CZ  TYR A   1      22.168   5.320   9.275  0.00  0.00    +0.117 A 
ATOM      6  CE2 TYR A   1      21.430   6.508   9.349  0.00  0.00    +0.045 A 
ATOM      7  CD2 TYR A   1      20.032   6.468   9.340  0.00  0.00    +0.007 A 
BRANCH   5   8
ATOM      8  OH  TYR A   1      23.562   5.347   9.283  0.00  0.00    -0.507 OA
ATOM      9  HH  TYR A   1      24.074   6.006   9.857  0.00  0.00    +0.292 HD
ENDBRANCH   5   8
ENDBRANCH   1   2
BRANCH   1  10
ATOM     10  CA  TYR A   1      17.270   6.363  10.086  0.00  0.00    +0.165 C 
BRANCH  10  11
ATOM     11  N   TYR A   1      16.802   5.897  11.394  0.00  0.00    -0.318 NA
ATOM     12  H1  TYR A   1      16.109   6.579  11.782  0.00  0.00    +0.119 HD
ATOM     13  H2  TYR A   1      17.616   5.870  12.051  0.00  0.00    +0.119 HD
ENDBRANCH  10  11
BRANCH  10  14
ATOM     14  C   TYR A   1      16.156   7.033   9.327  0.00  0.00    +0.322 C 
ATOM     15  O   TYR A   1      14.955   6.722   9.550  0.00  0.00    -0.249 OA
BRANCH  14  16
ATOM     16  OXT TYR A   1      16.454   7.999   8.371  0.00  0.00    -0.479 OA
ATOM     17  HXT TYR A   1      16.007   7.986   7.461  0.00  0.00    +0.295 HD
ENDBRANCH  14  16
ENDBRANCH  10  14
ENDBRANCH   1  10
TORSDOF 6
ENDMDL
MODEL 5
REMARK VINA RESULT:      -4.8     45.797     46.374
REMARK  Name = peptide_2_LSRKEQGNYP
REMARK  6 active torsions:
REMARK  status: ('A' for Active; 'I' for Inactive)
REMARK    1  A    between atoms: N_1  and  CA_2
REMARK    2  A    between atoms: CA_2  and  CB_3
REMARK    3  A    between atoms: CA_2  and  C_11
REMARK    4  A    between atoms: CB_3  and  CG_4
REMARK    5  A    between atoms: CZ_7  and  OH_8
REMARK    6  A    between atoms: C_11  and  OXT_13
REMARK                            x       y       z     vdW  Elec       q    Type
REMARK                         _______ _______ _______ _____ _____    ______ ____
ROOT
ATOM      1  CB  TYR A   1      16.421   6.831  10.160  0.00  0.00    +0.065 C 
ENDROOT
BRANCH   1   2
ATOM      2  CG  TYR A   1      17.571   5.922   9.810  0.00  0.00    -0.045 A 
ATOM      3  CD1 TYR A   1      18.889   6.409   9.809  0.00  0.00    +0.007 A 
ATOM      4  CE1 TYR A   1      19.950   5.570   9.458  0.00  0.00    +0.045 A 
ATOM      5  CZ  TYR A   1      19.707   4.240   9.096  0.00  0.00    +0.117 A 
ATOM      6  CE2 TYR A   1      18.394   3.752   9.087  0.00  0.00    +0.045 A 
ATOM      7  CD2 TYR A   1      17.330   4.589   9.438  0.00  0.00    +0.007 A 
BRANCH   5   8
ATOM      8  OH  TYR A   1      20.775   3.416   8.748  0.00  0.00    -0.507 OA
ATOM      9  HH  TYR A   1      20.689   2.406   8.760  0.00  0.00    +0.292 HD
ENDBRANCH   5   8
ENDBRANCH   1   2
BRANCH   1  10
ATOM     10  CA  TYR A   1      16.518   7.323  11.615  0.00  0.00    +0.165 C 
BRANCH  10  11
ATOM     11  N   TYR A   1      16.487   6.192  12.546  0.00  0.00    -0.318 NA
ATOM     12  H1  TYR A   1      15.494   5.944  12.764  0.00  0.00    +0.119 HD
ATOM     13  H2  TYR A   1      16.941   6.484  13.443  0.00  0.00    +0.119 HD
ENDBRANCH  10  11
BRANCH  10  14
ATOM     14  C   TYR A   1      15.410   8.296  11.917  0.00  0.00    +0.322 C 
ATOM     15  O   TYR A   1      14.691   8.752  10.989  0.00  0.00    -0.249 OA
BRANCH  14  16
ATOM     16  OXT TYR A   1      15.180   8.695  13.230  0.00  0.00    -0.479 OA
ATOM     17  HXT TYR A   1      15.837   8.466  13.966  0.00  0.00    +0.295 HD
ENDBRANCH  14  16
ENDBRANCH  10  14
ENDBRANCH   1  10
TORSDOF 6
ENDMDL
MODEL 6
REMARK VINA RESULT:      -4.8      2.412      5.303
REMARK  Name = peptide_2_LSRKEQGNYP
REMARK  6 active torsions:
REMARK  status: ('A' for Active; 'I' for Inactive)
REMARK    1  A    between atoms: N_1  and  CA_2
REMARK    2  A    between atoms: CA_2  and  CB_3
REMARK    3  A    between atoms: CA_2  and  C_11
REMARK    4  A    between atoms: CB_3  and  CG_4
REMARK    5  A    between atoms: CZ_7  and  OH_8
REMARK    6  A    between atoms: C_11  and  OXT_13
REMARK                            x       y       z     vdW  Elec       q    Type
REMARK                         _______ _______ _______ _____ _____    ______ ____
ROOT
ATOM      1  CB  TYR A   1      -8.687  -0.882  47.730  0.00  0.00    +0.065 C 
ENDROOT
BRANCH   1   2
ATOM      2  CG  TYR A   1     -10.062  -1.463  47.529  0.00  0.00    -0.045 A 
ATOM      3  CD1 TYR A   1     -11.111  -1.130  48.403  0.00  0.00    +0.007 A 
ATOM      4  CE1 TYR A   1     -12.379  -1.694  48.230  0.00  0.00    +0.045 A 
ATOM      5  CZ  TYR A   1     -12.610  -2.600  47.190  0.00  0.00    +0.117 A 
ATOM      6  CE2 TYR A   1     -11.566  -2.942  46.321  0.00  0.00    +0.045 A 
ATOM      7  CD2 TYR A   1     -10.297  -2.381  46.492  0.00  0.00    +0.007 A 
BRANCH   5   8
ATOM      8  OH  TYR A   1     -13.879  -3.153  47.030  0.00  0.00    -0.507 OA
ATOM      9  HH  TYR A   1     -14.709  -2.681  47.368  0.00  0.00    +0.292 HD
ENDBRANCH   5   8
ENDBRANCH   1   2
BRANCH   1  10
ATOM     10  CA  TYR A   1      -8.759   0.602  48.130  0.00  0.00    +0.165 C 
BRANCH  10  11
ATOM     11  N   TYR A   1      -9.328   1.404  47.044  0.00  0.00    -0.318 NA
ATOM     12  H1  TYR A   1      -9.569   2.358  47.401  0.00  0.00    +0.119 HD
ATOM     13  H2  TYR A   1     -10.218   0.955  46.726  0.00  0.00    +0.119 HD
ENDBRANCH  10  11
BRANCH  10  14
ATOM     14  C   TYR A   1      -7.395   1.112  48.513  0.00  0.00    +0.322 C 
ATOM     15  O   TYR A   1      -6.571   0.356  49.094  0.00  0.00    -0.249 OA
BRANCH  14  16
ATOM     16  OXT TYR A   1      -7.043   2.428  48.227  0.00  0.00    -0.479 OA
ATOM     17  HXT TYR A   1      -6.341   2.637  47.526  0.00  0.00    +0.295 HD
ENDBRANCH  14  16
ENDBRANCH  10  14
ENDBRANCH   1  10
TORSDOF 6
ENDMDL
MODEL 7
REMARK VINA RESULT:      -4.7      3.267      5.223
REMARK  Name = peptide_2_LSRKEQGNYP
REMARK  6 active torsions:
REMARK  status: ('A' for Active; 'I' for Inactive)
REMARK    1  A    between atoms: N_1  and  CA_2
REMARK    2  A    between atoms: CA_2  and  CB_3
REMARK    3  A    between atoms: CA_2  and  C_11
REMARK    4  A    between atoms: CB_3  and  CG_4
REMARK    5  A    between atoms: CZ_7  and  OH_8
REMARK    6  A    between atoms: C_11  and  OXT_13
REMARK                            x       y       z     vdW  Elec       q    Type
REMARK                         _______ _______ _______ _____ _____    ______ ____
ROOT
ATOM      1  CB  TYR A   1      -8.142   0.577  47.497  0.00  0.00    +0.065 C 
ENDROOT
BRANCH   1   2
ATOM      2  CG  TYR A   1      -9.402  -0.187  47.813  0.00  0.00    -0.045 A 
ATOM      3  CD1 TYR A   1      -9.338  -1.539  48.190  0.00  0.00    +0.007 A 
ATOM      4  CE1 TYR A   1     -10.511  -2.253  48.455  0.00  0.00    +0.045 A 
ATOM      5  CZ  TYR A   1     -11.757  -1.627  48.340  0.00  0.00    +0.117 A 
ATOM      6  CE2 TYR A   1     -11.826  -0.282  47.955  0.00  0.00    +0.045 A 
ATOM      7  CD2 TYR A   1     -10.655   0.434  47.689  0.00  0.00    +0.007 A 
BRANCH   5   8
ATOM      8  OH  TYR A   1     -12.917  -2.351  48.607  0.00  0.00    -0.507 OA
ATOM      9  HH  TYR A   1     -13.022  -3.313  48.306  0.00  0.00    +0.292 HD
ENDBRANCH   5   8
ENDBRANCH   1   2
BRANCH   1  10
ATOM     10  CA  TYR A   1      -7.189   0.611  48.705  0.00  0.00    +0.165 C 
BRANCH  10  11
ATOM     11  N   TYR A   1      -6.814   1.989  49.030  0.00  0.00    -0.318 NA
ATOM     12  H1  TYR A   1      -5.771   2.063  49.093  0.00  0.00    +0.119 HD
ATOM     13  H2  TYR A   1      -7.202   2.230  49.971  0.00  0.00    +0.119 HD
ENDBRANCH  10  11
BRANCH  10  14
ATOM     14  C   TYR A   1      -5.967  -0.227  48.435  0.00  0.00    +0.322 C 
ATOM     15  O   TYR A   1      -5.871  -1.388  48.917  0.00  0.00    -0.249 OA
BRANCH  14  16
ATOM     16  OXT TYR A   1      -4.937   0.285  47.653  0.00  0.00    -0.479 OA
ATOM     17  HXT TYR A   1      -4.901   0.103  46.657  0.00  0.00    +0.295 HD
ENDBRANCH  14  16
ENDBRANCH  10  14
ENDBRANCH   1  10
TORSDOF 6
ENDMDL
MODEL 8
REMARK VINA RESULT:      -4.7     28.956     29.646
REMARK  Name = peptide_2_LSRKEQGNYP
REMARK  6 active torsions:
REMARK  status: ('A' for Active; 'I' for Inactive)
REMARK    1  A    between atoms: N_1  and  CA_2
REMARK    2  A    between atoms: CA_2  and  CB_3
REMARK    3  A    between atoms: CA_2  and  C_11
REMARK    4  A    between atoms: CB_3  and  CG_4
REMARK    5  A    between atoms: CZ_7  and  OH_8
REMARK    6  A    between atoms: C_11  and  OXT_13
REMARK                            x       y       z     vdW  Elec       q    Type
REMARK                         _______ _______ _______ _____ _____    ______ ____
ROOT
ATOM      1  CB  TYR A   1       7.335   8.921  25.253  0.00  0.00    +0.065 C 
ENDROOT
BRANCH   1   2
ATOM      2  CG  TYR A   1       8.020   7.608  25.530  0.00  0.00    -0.045 A 
ATOM      3  CD1 TYR A   1       7.328   6.565  26.169  0.00  0.00    +0.007 A 
ATOM      4  CE1 TYR A   1       7.975   5.358  26.450  0.00  0.00    +0.045 A 
ATOM      5  CZ  TYR A   1       9.319   5.182  26.103  0.00  0.00    +0.117 A 
ATOM      6  CE2 TYR A   1      10.016   6.222  25.474  0.00  0.00    +0.045 A 
ATOM      7  CD2 TYR A   1       9.372   7.430  25.193  0.00  0.00    +0.007 A 
BRANCH   5   8
ATOM      8  OH  TYR A   1       9.951   3.974  26.389  0.00  0.00    -0.507 OA
ATOM      9  HH  TYR A   1      10.031   3.631  27.339  0.00  0.00    +0.292 HD
ENDBRANCH   5   8
ENDBRANCH   1   2
BRANCH   1  10
ATOM     10  CA  TYR A   1       7.105   9.126  23.745  0.00  0.00    +0.165 C 
BRANCH  10  11
ATOM     11  N   TYR A   1       7.246  10.539  23.387  0.00  0.00    -0.318 NA
ATOM     12  H1  TYR A   1       6.685  11.126  24.048  0.00  0.00    +0.119 HD
ATOM     13  H2  TYR A   1       6.853  10.684  22.428  0.00  0.00    +0.119 HD
ENDBRANCH  10  11
BRANCH  10  14
ATOM     14  C   TYR A   1       5.750   8.605  23.344  0.00  0.00    +0.322 C 
ATOM     15  O   TYR A   1       4.807   9.404  23.098  0.00  0.00    -0.249 OA
BRANCH  14  16
ATOM     16  OXT TYR A   1       5.538   7.233  23.246  0.00  0.00    -0.479 OA
ATOM     17  HXT TYR A   1       5.827   6.720  22.422  0.00  0.00    +0.295 HD
ENDBRANCH  14  16
ENDBRANCH  10  14
ENDBRANCH   1  10
TORSDOF 6
ENDMDL
MODEL 9
REMARK VINA RESULT:      -4.6     45.336     45.851
REMARK  Name = peptide_2_LSRKEQGNYP
REMARK  6 active torsions:
REMARK  status: ('A' for Active; 'I' for Inactive)
REMARK    1  A    between atoms: N_1  and  CA_2
REMARK    2  A    between atoms: CA_2  and  CB_3
REMARK    3  A    between atoms: CA_2  and  C_11
REMARK    4  A    between atoms: CB_3  and  CG_4
REMARK    5  A    between atoms: CZ_7  and  OH_8
REMARK    6  A    between atoms: C_11  and  OXT_13
REMARK                            x       y       z     vdW  Elec       q    Type
REMARK                         _______ _______ _______ _____ _____    ______ ____
ROOT
ATOM      1  CB  TYR A   1      16.667   6.204  10.673  0.00  0.00    +0.065 C 
ENDROOT
BRANCH   1   2
ATOM      2  CG  TYR A   1      17.205   7.158  11.707  0.00  0.00    -0.045 A 
ATOM      3  CD1 TYR A   1      18.035   8.227  11.327  0.00  0.00    +0.007 A 
ATOM      4  CE1 TYR A   1      18.555   9.094  12.292  0.00  0.00    +0.045 A 
ATOM      5  CZ  TYR A   1      18.259   8.899  13.645  0.00  0.00    +0.117 A 
ATOM      6  CE2 TYR A   1      17.440   7.830  14.031  0.00  0.00    +0.045 A 
ATOM      7  CD2 TYR A   1      16.919   6.961  13.068  0.00  0.00    +0.007 A 
BRANCH   5   8
ATOM      8  OH  TYR A   1      18.785   9.772  14.597  0.00  0.00    -0.507 OA
ATOM      9  HH  TYR A   1      18.289  10.610  14.877  0.00  0.00    +0.292 HD
ENDBRANCH   5   8
ENDBRANCH   1   2
BRANCH   1  10
ATOM     10  CA  TYR A   1      17.663   6.010   9.517  0.00  0.00    +0.165 C 
BRANCH  10  11
ATOM     11  N   TYR A   1      17.124   6.563   8.271  0.00  0.00    -0.318 NA
ATOM     12  H1  TYR A   1      16.276   6.021   7.985  0.00  0.00    +0.119 HD
ATOM     13  H2  TYR A   1      17.839   6.448   7.516  0.00  0.00    +0.119 HD
ENDBRANCH  10  11
BRANCH  10  14
ATOM     14  C   TYR A   1      18.003   4.552   9.351  0.00  0.00    +0.322 C 
ATOM     15  O   TYR A   1      17.332   3.826   8.570  0.00  0.00    -0.249 OA
BRANCH  14  16
ATOM     16  OXT TYR A   1      19.062   4.004  10.069  0.00  0.00    -0.479 OA
ATOM     17  HXT TYR A   1      18.916   3.611  10.992  0.00  0.00    +0.295 HD
ENDBRANCH  14  16
ENDBRANCH  10  14
ENDBRANCH   1  10
TORSDOF 6
ENDMDL
