MODEL 1
REMARK VINA RESULT:      -6.2      0.000      0.000
REMARK  Name = peptide_44_ENRTIRWQEF
REMARK  5 active torsions:
REMARK  status: ('A' for Active; 'I' for Inactive)
REMARK    1  A    between atoms: N_1  and  CA_2
REMARK    2  A    between atoms: CA_2  and  CB_3
REMARK    3  A    between atoms: CA_2  and  C_13
REMARK    4  A    between atoms: CB_3  and  CG_4
REMARK    5  A    between atoms: C_13  and  OXT_15
REMARK                            x       y       z     vdW  Elec       q    Type
REMARK                         _______ _______ _______ _____ _____    ______ ____
ROOT
ATOM      1  CG  TRP A   1      18.357   5.315   9.126  0.00  0.00    -0.020 A 
ATOM      2  CD1 TRP A   1      18.140   3.941   9.112  0.00  0.00    +0.087 A 
ATOM      3  NE1 TRP A   1      19.318   3.277   9.146  0.00  0.00    -0.360 N 
ATOM      4  CE2 TRP A   1      20.275   4.221   9.170  0.00  0.00    +0.047 A 
ATOM      5  CZ2 TRP A   1      21.656   4.025   9.191  0.00  0.00    +0.026 A 
ATOM      6  CH2 TRP A   1      22.482   5.164   9.194  0.00  0.00    +0.002 A 
ATOM      7  CZ3 TRP A   1      21.917   6.458   9.174  0.00  0.00    +0.001 A 
ATOM      8  CE3 TRP A   1      20.521   6.626   9.152  0.00  0.00    +0.010 A 
ATOM      9  CD2 TRP A   1      19.728   5.478   9.155  0.00  0.00    +0.003 A 
ATOM     10  HE1 TRP A   1      19.453   2.242   9.140  0.00  0.00    +0.165 HD
ENDROOT
BRANCH   1  11
ATOM     11  CB  TRP A   1      17.309   6.388   9.025  0.00  0.00    +0.067 C 
BRANCH  11  12
ATOM     12  CA  TRP A   1      16.189   6.187  10.066  0.00  0.00    +0.165 C 
BRANCH  12  13
ATOM     13  N   TRP A   1      14.992   6.948   9.702  0.00  0.00    -0.318 NA
ATOM     14  H1  TRP A   1      15.260   7.952   9.579  0.00  0.00    +0.119 HD
ATOM     15  H2  TRP A   1      14.299   6.906  10.485  0.00  0.00    +0.119 HD
ENDBRANCH  12  13
BRANCH  12  16
ATOM     16  C   TRP A   1      16.645   6.590  11.441  0.00  0.00    +0.322 C 
ATOM     17  O   TRP A   1      17.322   7.641  11.607  0.00  0.00    -0.249 OA
BRANCH  16  18
ATOM     18  OXT TRP A   1      16.344   5.781  12.533  0.00  0.00    -0.479 OA
ATOM     19  HXT TRP A   1      15.917   6.170  13.366  0.00  0.00    +0.295 HD
ENDBRANCH  16  18
ENDBRANCH  12  16
ENDBRANCH  11  12
ENDBRANCH   1  11
TORSDOF 5
ENDMDL
MODEL 2
REMARK VINA RESULT:      -6.2     46.076     47.406
REMARK  Name = peptide_44_ENRTIRWQEF
REMARK  5 active torsions:
REMARK  status: ('A' for Active; 'I' for Inactive)
REMARK    1  A    between atoms: N_1  and  CA_2
REMARK    2  A    between atoms: CA_2  and  CB_3
REMARK    3  A    between atoms: CA_2  and  C_13
REMARK    4  A    between atoms: CB_3  and  CG_4
REMARK    5  A    between atoms: C_13  and  OXT_15
REMARK                            x       y       z     vdW  Elec       q    Type
REMARK                         _______ _______ _______ _____ _____    ______ ____
ROOT
ATOM      1  CG  TRP A   1      -9.494  -0.147  47.913  0.00  0.00    -0.020 A 
ATOM      2  CD1 TRP A   1      -9.839   1.200  47.872  0.00  0.00    +0.087 A 
ATOM      3  NE1 TRP A   1      -8.730   1.973  47.924  0.00  0.00    -0.360 N 
ATOM      4  CE2 TRP A   1      -7.690   1.125  48.010  0.00  0.00    +0.047 A 
ATOM      5  CZ2 TRP A   1      -6.338   1.452  48.107  0.00  0.00    +0.026 A 
ATOM      6  CH2 TRP A   1      -5.412   0.398  48.207  0.00  0.00    +0.002 A 
ATOM      7  CZ3 TRP A   1      -5.852  -0.944  48.212  0.00  0.00    +0.001 A 
ATOM      8  CE3 TRP A   1      -7.223  -1.244  48.115  0.00  0.00    +0.010 A 
ATOM      9  CD2 TRP A   1      -8.116  -0.178  48.011  0.00  0.00    +0.003 A 
ATOM     10  HE1 TRP A   1      -8.694   3.016  47.915  0.00  0.00    +0.165 HD
ENDROOT
BRANCH   1  11
ATOM     11  CB  TRP A   1     -10.441  -1.314  47.950  0.00  0.00    +0.067 C 
BRANCH  11  12
ATOM     12  CA  TRP A   1     -11.724  -1.028  47.144  0.00  0.00    +0.165 C 
BRANCH  12  13
ATOM     13  N   TRP A   1     -12.909  -1.509  47.858  0.00  0.00    -0.318 NA
ATOM     14  H1  TRP A   1     -13.755  -1.297  47.279  0.00  0.00    +0.119 HD
ATOM     15  H2  TRP A   1     -13.011  -0.986  48.758  0.00  0.00    +0.119 HD
ENDBRANCH  12  13
BRANCH  12  16
ATOM     16  C   TRP A   1     -11.664  -1.660  45.781  0.00  0.00    +0.322 C 
ATOM     17  O   TRP A   1     -11.637  -2.914  45.660  0.00  0.00    -0.249 OA
BRANCH  16  18
ATOM     18  OXT TRP A   1     -11.606  -0.854  44.648  0.00  0.00    -0.479 OA
ATOM     19  HXT TRP A   1     -11.749  -1.245  43.724  0.00  0.00    +0.295 HD
ENDBRANCH  16  18
ENDBRANCH  12  16
ENDBRANCH  11  12
ENDBRANCH   1  11
TORSDOF 5
ENDMDL
MODEL 3
REMARK VINA RESULT:      -5.4     39.084     40.763
REMARK  Name = peptide_44_ENRTIRWQEF
REMARK  5 active torsions:
REMARK  status: ('A' for Active; 'I' for Inactive)
REMARK    1  A    between atoms: N_1  and  CA_2
REMARK    2  A    between atoms: CA_2  and  CB_3
REMARK    3  A    between atoms: CA_2  and  C_13
REMARK    4  A    between atoms: CB_3  and  CG_4
REMARK    5  A    between atoms: C_13  and  OXT_15
REMARK                            x       y       z     vdW  Elec       q    Type
REMARK                         _______ _______ _______ _____ _____    ______ ____
ROOT
ATOM      1  CG  TRP A   1       4.952  -5.775  47.347  0.00  0.00    -0.020 A 
ATOM      2  CD1 TRP A   1       5.920  -5.130  48.111  0.00  0.00    +0.087 A 
ATOM      3  NE1 TRP A   1       7.136  -5.248  47.529  0.00  0.00    -0.360 N 
ATOM      4  CE2 TRP A   1       6.944  -5.971  46.412  0.00  0.00    +0.047 A 
ATOM      5  CZ2 TRP A   1       7.909  -6.370  45.488  0.00  0.00    +0.026 A 
ATOM      6  CH2 TRP A   1       7.489  -7.146  44.392  0.00  0.00    +0.002 A 
ATOM      7  CZ3 TRP A   1       6.130  -7.504  44.247  0.00  0.00    +0.001 A 
ATOM      8  CE3 TRP A   1       5.179  -7.088  45.196  0.00  0.00    +0.010 A 
ATOM      9  CD2 TRP A   1       5.625  -6.316  46.269  0.00  0.00    +0.003 A 
ATOM     10  HE1 TRP A   1       8.039  -4.866  47.886  0.00  0.00    +0.165 HD
ENDROOT
BRANCH   1  11
ATOM     11  CB  TRP A   1       3.498  -5.933  47.691  0.00  0.00    +0.067 C 
BRANCH  11  12
ATOM     12  CA  TRP A   1       2.638  -4.830  47.040  0.00  0.00    +0.165 C 
BRANCH  12  13
ATOM     13  N   TRP A   1       1.449  -4.548  47.847  0.00  0.00    -0.318 NA
ATOM     14  H1  TRP A   1       0.962  -5.451  48.049  0.00  0.00    +0.119 HD
ATOM     15  H2  TRP A   1       0.785  -3.955  47.296  0.00  0.00    +0.119 HD
ENDBRANCH  12  13
BRANCH  12  16
ATOM     16  C   TRP A   1       2.224  -5.213  45.647  0.00  0.00    +0.322 C 
ATOM     17  O   TRP A   1       1.320  -6.072  45.463  0.00  0.00    -0.249 OA
BRANCH  16  18
ATOM     18  OXT TRP A   1       2.865  -4.638  44.553  0.00  0.00    -0.479 OA
ATOM     19  HXT TRP A   1       2.766  -3.649  44.354  0.00  0.00    +0.295 HD
ENDBRANCH  16  18
ENDBRANCH  12  16
ENDBRANCH  11  12
ENDBRANCH   1  11
TORSDOF 5
ENDMDL
MODEL 4
REMARK VINA RESULT:      -5.4      2.585      3.555
REMARK  Name = peptide_44_ENRTIRWQEF
REMARK  5 active torsions:
REMARK  status: ('A' for Active; 'I' for Inactive)
REMARK    1  A    between atoms: N_1  and  CA_2
REMARK    2  A    between atoms: CA_2  and  CB_3
REMARK    3  A    between atoms: CA_2  and  C_13
REMARK    4  A    between atoms: CB_3  and  CG_4
REMARK    5  A    between atoms: C_13  and  OXT_15
REMARK                            x       y       z     vdW  Elec       q    Type
REMARK                         _______ _______ _______ _____ _____    ______ ____
ROOT
ATOM      1  CG  TRP A   1      20.224   7.361   9.501  0.00  0.00    -0.020 A 
ATOM      2  CD1 TRP A   1      20.437   8.724   9.319  0.00  0.00    +0.087 A 
ATOM      3  NE1 TRP A   1      21.730   8.962   9.000  0.00  0.00    -0.360 N 
ATOM      4  CE2 TRP A   1      22.336   7.761   8.990  0.00  0.00    +0.047 A 
ATOM      5  CZ2 TRP A   1      23.680   7.496   8.732  0.00  0.00    +0.026 A 
ATOM      6  CH2 TRP A   1      24.111   6.157   8.795  0.00  0.00    +0.002 A 
ATOM      7  CZ3 TRP A   1      23.198   5.127   9.114  0.00  0.00    +0.001 A 
ATOM      8  CE3 TRP A   1      21.848   5.425   9.372  0.00  0.00    +0.010 A 
ATOM      9  CD2 TRP A   1      21.451   6.760   9.296  0.00  0.00    +0.003 A 
ATOM     10  HE1 TRP A   1      22.168   9.891   8.814  0.00  0.00    +0.165 HD
ENDROOT
BRANCH   1  11
ATOM     11  CB  TRP A   1      18.944   6.704   9.934  0.00  0.00    +0.067 C 
BRANCH  11  12
ATOM     12  CA  TRP A   1      18.292   5.917   8.780  0.00  0.00    +0.165 C 
BRANCH  12  13
ATOM     13  N   TRP A   1      17.007   6.509   8.402  0.00  0.00    -0.318 NA
ATOM     14  H1  TRP A   1      16.916   7.437   8.875  0.00  0.00    +0.119 HD
ATOM     15  H2  TRP A   1      16.227   5.905   8.752  0.00  0.00    +0.119 HD
ENDBRANCH  12  13
BRANCH  12  16
ATOM     16  C   TRP A   1      18.094   4.473   9.148  0.00  0.00    +0.322 C 
ATOM     17  O   TRP A   1      17.230   3.774   8.553  0.00  0.00    -0.249 OA
BRANCH  16  18
ATOM     18  OXT TRP A   1      18.849   3.912  10.175  0.00  0.00    -0.479 OA
ATOM     19  HXT TRP A   1      18.578   4.031  11.144  0.00  0.00    +0.295 HD
ENDBRANCH  16  18
ENDBRANCH  12  16
ENDBRANCH  11  12
ENDBRANCH   1  11
TORSDOF 5
ENDMDL
MODEL 5
REMARK VINA RESULT:      -5.3     18.022     19.122
REMARK  Name = peptide_44_ENRTIRWQEF
REMARK  5 active torsions:
REMARK  status: ('A' for Active; 'I' for Inactive)
REMARK    1  A    between atoms: N_1  and  CA_2
REMARK    2  A    between atoms: CA_2  and  CB_3
REMARK    3  A    between atoms: CA_2  and  C_13
REMARK    4  A    between atoms: CB_3  and  CG_4
REMARK    5  A    between atoms: C_13  and  OXT_15
REMARK                            x       y       z     vdW  Elec       q    Type
REMARK                         _______ _______ _______ _____ _____    ______ ____
ROOT
ATOM      1  CG  TRP A   1       8.487   7.916  25.247  0.00  0.00    -0.020 A 
ATOM      2  CD1 TRP A   1       9.807   8.038  24.824  0.00  0.00    +0.087 A 
ATOM      3  NE1 TRP A   1      10.522   6.950  25.189  0.00  0.00    -0.360 N 
ATOM      4  CE2 TRP A   1       9.668   6.148  25.850  0.00  0.00    +0.047 A 
ATOM      5  CZ2 TRP A   1       9.948   4.915  26.436  0.00  0.00    +0.026 A 
ATOM      6  CH2 TRP A   1       8.902   4.249  27.099  0.00  0.00    +0.002 A 
ATOM      7  CZ3 TRP A   1       7.614   4.826  27.164  0.00  0.00    +0.001 A 
ATOM      8  CE3 TRP A   1       7.361   6.073  26.565  0.00  0.00    +0.010 A 
ATOM      9  CD2 TRP A   1       8.417   6.706  25.910  0.00  0.00    +0.003 A 
ATOM     10  HE1 TRP A   1      11.536   6.778  25.008  0.00  0.00    +0.165 HD
ENDROOT
BRANCH   1  11
ATOM     11  CB  TRP A   1       7.400   8.942  25.099  0.00  0.00    +0.067 C 
BRANCH  11  12
ATOM     12  CA  TRP A   1       7.055   9.194  23.618  0.00  0.00    +0.165 C 
BRANCH  12  13
ATOM     13  N   TRP A   1       7.008  10.628  23.326  0.00  0.00    -0.318 NA
ATOM     14  H1  TRP A   1       6.732  11.136  24.198  0.00  0.00    +0.119 HD
ATOM     15  H2  TRP A   1       6.268  10.816  22.611  0.00  0.00    +0.119 HD
ENDBRANCH  12  13
BRANCH  12  16
ATOM     16  C   TRP A   1       5.742   8.560  23.249  0.00  0.00    +0.322 C 
ATOM     17  O   TRP A   1       4.794   9.266  22.810  0.00  0.00    -0.249 OA
BRANCH  16  18
ATOM     18  OXT TRP A   1       5.563   7.191  23.422  0.00  0.00    -0.479 OA
ATOM     19  HXT TRP A   1       5.022   6.650  22.758  0.00  0.00    +0.295 HD
ENDBRANCH  16  18
ENDBRANCH  12  16
ENDBRANCH  11  12
ENDBRANCH   1  11
TORSDOF 5
ENDMDL
MODEL 6
REMARK VINA RESULT:      -5.3     34.343     35.624
REMARK  Name = peptide_44_ENRTIRWQEF
REMARK  5 active torsions:
REMARK  status: ('A' for Active; 'I' for Inactive)
REMARK    1  A    between atoms: N_1  and  CA_2
REMARK    2  A    between atoms: CA_2  and  CB_3
REMARK    3  A    between atoms: CA_2  and  C_13
REMARK    4  A    between atoms: CB_3  and  CG_4
REMARK    5  A    between atoms: C_13  and  OXT_15
REMARK                            x       y       z     vdW  Elec       q    Type
REMARK                         _______ _______ _______ _____ _____    ______ ____
ROOT
ATOM      1  CG  TRP A   1      12.190  -4.003  42.256  0.00  0.00    -0.020 A 
ATOM      2  CD1 TRP A   1      11.191  -3.065  42.012  0.00  0.00    +0.087 A 
ATOM      3  NE1 TRP A   1       9.972  -3.599  42.256  0.00  0.00    -0.360 N 
ATOM      4  CE2 TRP A   1      10.194  -4.868  42.640  0.00  0.00    +0.047 A 
ATOM      5  CZ2 TRP A   1       9.240  -5.826  42.981  0.00  0.00    +0.026 A 
ATOM      6  CH2 TRP A   1       9.694  -7.110  43.337  0.00  0.00    +0.002 A 
ATOM      7  CZ3 TRP A   1      11.076  -7.403  43.340  0.00  0.00    +0.001 A 
ATOM      8  CE3 TRP A   1      12.015  -6.417  42.990  0.00  0.00    +0.010 A 
ATOM      9  CD2 TRP A   1      11.534  -5.154  42.648  0.00  0.00    +0.003 A 
ATOM     10  HE1 TRP A   1       9.049  -3.123  42.152  0.00  0.00    +0.165 HD
ENDROOT
BRANCH   1  11
ATOM     11  CB  TRP A   1      13.664  -3.819  42.033  0.00  0.00    +0.067 C 
BRANCH  11  12
ATOM     12  CA  TRP A   1      14.259  -2.775  42.999  0.00  0.00    +0.165 C 
BRANCH  12  13
ATOM     13  N   TRP A   1      15.238  -1.927  42.317  0.00  0.00    -0.318 NA
ATOM     14  H1  TRP A   1      15.396  -1.069  42.896  0.00  0.00    +0.119 HD
ATOM     15  H2  TRP A   1      14.849  -1.612  41.398  0.00  0.00    +0.119 HD
ENDBRANCH  12  13
BRANCH  12  16
ATOM     16  C   TRP A   1      14.903  -3.436  44.186  0.00  0.00    +0.322 C 
ATOM     17  O   TRP A   1      14.997  -4.692  44.244  0.00  0.00    -0.249 OA
BRANCH  16  18
ATOM     18  OXT TRP A   1      15.369  -2.658  45.242  0.00  0.00    -0.479 OA
ATOM     19  HXT TRP A   1      15.285  -2.977  46.200  0.00  0.00    +0.295 HD
ENDBRANCH  16  18
ENDBRANCH  12  16
ENDBRANCH  11  12
ENDBRANCH   1  11
TORSDOF 5
ENDMDL
MODEL 7
REMARK VINA RESULT:      -5.2     46.704     47.447
REMARK  Name = peptide_44_ENRTIRWQEF
REMARK  5 active torsions:
REMARK  status: ('A' for Active; 'I' for Inactive)
REMARK    1  A    between atoms: N_1  and  CA_2
REMARK    2  A    between atoms: CA_2  and  CB_3
REMARK    3  A    between atoms: CA_2  and  C_13
REMARK    4  A    between atoms: CB_3  and  CG_4
REMARK    5  A    between atoms: C_13  and  OXT_15
REMARK                            x       y       z     vdW  Elec       q    Type
REMARK                         _______ _______ _______ _____ _____    ______ ____
ROOT
ATOM      1  CG  TRP A   1      -9.491  -1.365  47.500  0.00  0.00    -0.020 A 
ATOM      2  CD1 TRP A   1      -9.021  -2.663  47.674  0.00  0.00    +0.087 A 
ATOM      3  NE1 TRP A   1      -7.746  -2.646  48.125  0.00  0.00    -0.360 N 
ATOM      4  CE2 TRP A   1      -7.405  -1.350  48.226  0.00  0.00    +0.047 A 
ATOM      5  CZ2 TRP A   1      -6.178  -0.828  48.633  0.00  0.00    +0.026 A 
ATOM      6  CH2 TRP A   1      -6.029   0.571  48.646  0.00  0.00    +0.002 A 
ATOM      7  CZ3 TRP A   1      -7.098   1.407  48.254  0.00  0.00    +0.001 A 
ATOM      8  CE3 TRP A   1      -8.324   0.853  47.846  0.00  0.00    +0.010 A 
ATOM      9  CD2 TRP A   1      -8.442  -0.537  47.849  0.00  0.00    +0.003 A 
ATOM     10  HE1 TRP A   1      -7.147  -3.475  48.336  0.00  0.00    +0.165 HD
ENDROOT
BRANCH   1  11
ATOM     11  CB  TRP A   1     -10.830  -0.963  46.946  0.00  0.00    +0.067 C 
BRANCH  11  12
ATOM     12  CA  TRP A   1     -11.220  -1.823  45.728  0.00  0.00    +0.165 C 
BRANCH  12  13
ATOM     13  N   TRP A   1     -11.561  -0.982  44.579  0.00  0.00    -0.318 NA
ATOM     14  H1  TRP A   1     -10.970  -0.118  44.612  0.00  0.00    +0.119 HD
ATOM     15  H2  TRP A   1     -12.559  -0.676  44.653  0.00  0.00    +0.119 HD
ENDBRANCH  12  13
BRANCH  12  16
ATOM     16  C   TRP A   1     -12.376  -2.731  46.049  0.00  0.00    +0.322 C 
ATOM     17  O   TRP A   1     -12.746  -2.893  47.243  0.00  0.00    -0.249 OA
BRANCH  16  18
ATOM     18  OXT TRP A   1     -13.019  -3.419  45.025  0.00  0.00    -0.479 OA
ATOM     19  HXT TRP A   1     -13.145  -4.423  45.073  0.00  0.00    +0.295 HD
ENDBRANCH  16  18
ENDBRANCH  12  16
ENDBRANCH  11  12
ENDBRANCH   1  11
TORSDOF 5
ENDMDL
MODEL 8
REMARK VINA RESULT:      -5.2     18.557     20.026
REMARK  Name = peptide_44_ENRTIRWQEF
REMARK  5 active torsions:
REMARK  status: ('A' for Active; 'I' for Inactive)
REMARK    1  A    between atoms: N_1  and  CA_2
REMARK    2  A    between atoms: CA_2  and  CB_3
REMARK    3  A    between atoms: CA_2  and  C_13
REMARK    4  A    between atoms: CB_3  and  CG_4
REMARK    5  A    between atoms: C_13  and  OXT_15
REMARK                            x       y       z     vdW  Elec       q    Type
REMARK                         _______ _______ _______ _____ _____    ______ ____
ROOT
ATOM      1  CG  TRP A   1       8.406   8.025  25.244  0.00  0.00    -0.020 A 
ATOM      2  CD1 TRP A   1       9.750   8.294  25.006  0.00  0.00    +0.087 A 
ATOM      3  NE1 TRP A   1      10.523   7.285  25.471  0.00  0.00    -0.360 N 
ATOM      4  CE2 TRP A   1       9.678   6.389  26.011  0.00  0.00    +0.047 A 
ATOM      5  CZ2 TRP A   1      10.007   5.186  26.634  0.00  0.00    +0.026 A 
ATOM      6  CH2 TRP A   1       8.958   4.404  27.150  0.00  0.00    +0.002 A 
ATOM      7  CZ3 TRP A   1       7.618   4.837  27.034  0.00  0.00    +0.001 A 
ATOM      8  CE3 TRP A   1       7.316   6.056  26.401  0.00  0.00    +0.010 A 
ATOM      9  CD2 TRP A   1       8.377   6.807  25.896  0.00  0.00    +0.003 A 
ATOM     10  HE1 TRP A   1      11.564   7.226  25.431  0.00  0.00    +0.165 HD
ENDROOT
BRANCH   1  11
ATOM     11  CB  TRP A   1       7.244   8.930  24.944  0.00  0.00    +0.067 C 
BRANCH  11  12
ATOM     12  CA  TRP A   1       6.860   9.784  26.168  0.00  0.00    +0.165 C 
BRANCH  12  13
ATOM     13  N   TRP A   1       7.967   9.861  27.123  0.00  0.00    -0.318 NA
ATOM     14  H1  TRP A   1       8.119  10.865  27.377  0.00  0.00    +0.119 HD
ATOM     15  H2  TRP A   1       8.847   9.522  26.667  0.00  0.00    +0.119 HD
ENDBRANCH  12  13
BRANCH  12  16
ATOM     16  C   TRP A   1       5.639   9.236  26.854  0.00  0.00    +0.322 C 
ATOM     17  O   TRP A   1       5.481   9.389  28.095  0.00  0.00    -0.249 OA
BRANCH  16  18
ATOM     18  OXT TRP A   1       4.693   8.528  26.118  0.00  0.00    -0.479 OA
ATOM     19  HXT TRP A   1       4.978   7.849  25.422  0.00  0.00    +0.295 HD
ENDBRANCH  16  18
ENDBRANCH  12  16
ENDBRANCH  11  12
ENDBRANCH   1  11
TORSDOF 5
ENDMDL
MODEL 9
REMARK VINA RESULT:      -5.1     32.816     34.578
REMARK  Name = peptide_44_ENRTIRWQEF
REMARK  5 active torsions:
REMARK  status: ('A' for Active; 'I' for Inactive)
REMARK    1  A    between atoms: N_1  and  CA_2
REMARK    2  A    between atoms: CA_2  and  CB_3
REMARK    3  A    between atoms: CA_2  and  C_13
REMARK    4  A    between atoms: CB_3  and  CG_4
REMARK    5  A    between atoms: C_13  and  OXT_15
REMARK                            x       y       z     vdW  Elec       q    Type
REMARK                         _______ _______ _______ _____ _____    ______ ____
ROOT
ATOM      1  CG  TRP A   1      12.135  -3.800  42.348  0.00  0.00    -0.020 A 
ATOM      2  CD1 TRP A   1      11.007  -3.042  42.046  0.00  0.00    +0.087 A 
ATOM      3  NE1 TRP A   1       9.888  -3.792  42.172  0.00  0.00    -0.360 N 
ATOM      4  CE2 TRP A   1      10.301  -5.018  42.538  0.00  0.00    +0.047 A 
ATOM      5  CZ2 TRP A   1       9.510  -6.142  42.771  0.00  0.00    +0.026 A 
ATOM      6  CH2 TRP A   1      10.157  -7.339  43.129  0.00  0.00    +0.002 A 
ATOM      7  CZ3 TRP A   1      11.564  -7.386  43.241  0.00  0.00    +0.001 A 
ATOM      8  CE3 TRP A   1      12.337  -6.237  42.998  0.00  0.00    +0.010 A 
ATOM      9  CD2 TRP A   1      11.667  -5.064  42.651  0.00  0.00    +0.003 A 
ATOM     10  HE1 TRP A   1       8.906  -3.481  42.003  0.00  0.00    +0.165 HD
ENDROOT
BRANCH   1  11
ATOM     11  CB  TRP A   1      13.567  -3.352  42.255  0.00  0.00    +0.067 C 
BRANCH  11  12
ATOM     12  CA  TRP A   1      14.120  -3.513  40.825  0.00  0.00    +0.165 C 
BRANCH  12  13
ATOM     13  N   TRP A   1      14.847  -4.776  40.683  0.00  0.00    -0.318 NA
ATOM     14  H1  TRP A   1      15.288  -4.802  39.734  0.00  0.00    +0.119 HD
ATOM     15  H2  TRP A   1      14.173  -5.575  40.732  0.00  0.00    +0.119 HD
ENDBRANCH  12  13
BRANCH  12  16
ATOM     16  C   TRP A   1      15.021  -2.367  40.457  0.00  0.00    +0.322 C 
ATOM     17  O   TRP A   1      15.429  -1.567  41.342  0.00  0.00    -0.249 OA
BRANCH  16  18
ATOM     18  OXT TRP A   1      15.383  -2.171  39.127  0.00  0.00    -0.479 OA
ATOM     19  HXT TRP A   1      14.781  -1.655  38.496  0.00  0.00    +0.295 HD
ENDBRANCH  16  18
ENDBRANCH  12  16
ENDBRANCH  11  12
ENDBRANCH   1  11
TORSDOF 5
ENDMDL
