MODEL 1
REMARK VINA RESULT:      -4.2      0.000      0.000
REMARK  Name = peptide_28_EQGAKIMDGQ
REMARK  7 active torsions:
REMARK  status: ('A' for Active; 'I' for Inactive)
REMARK    1  A    between atoms: N_1  and  CA_2
REMARK    2  A    between atoms: CA_2  and  CB_3
REMARK    3  A    between atoms: CA_2  and  C_7
REMARK    4  A    between atoms: CB_3  and  CG2_4
REMARK    5  A    between atoms: CB_3  and  CG1_5
REMARK    6  A    between atoms: CG1_5  and  CD1_6
REMARK    7  A    between atoms: C_7  and  OXT_9
REMARK                            x       y       z     vdW  Elec       q    Type
REMARK                         _______ _______ _______ _____ _____    ______ ____
ROOT
ATOM      1  CA  ILE A   1      20.725   4.409   8.632  0.00  0.00    +0.164 C 
ENDROOT
BRANCH   1   2
ATOM      2  N   ILE A   1      21.059   3.030   9.000  0.00  0.00    -0.318 NA
ATOM      3  H1  ILE A   1      21.309   3.001  10.017  0.00  0.00    +0.119 HD
ATOM      4  H2  ILE A   1      21.937   2.758   8.504  0.00  0.00    +0.119 HD
ENDBRANCH   1   2
BRANCH   1   5
ATOM      5  CB  ILE A   1      19.586   4.976   9.537  0.00  0.00    +0.013 C 
ATOM      6  CG2 ILE A   1      19.389   6.482   9.275  0.00  0.00    +0.009 C 
BRANCH   5   7
ATOM      7  CG1 ILE A   1      18.233   4.236   9.325  0.00  0.00    +0.002 C 
ATOM      8  CD1 ILE A   1      17.035   5.189   9.332  0.00  0.00    +0.004 C 
ENDBRANCH   5   7
ENDBRANCH   1   5
BRANCH   1   9
ATOM      9  C   ILE A   1      21.964   5.260   8.747  0.00  0.00    +0.322 C 
ATOM     10  O   ILE A   1      22.581   5.335   9.843  0.00  0.00    -0.249 OA
BRANCH   9  11
ATOM     11  OXT ILE A   1      22.431   5.963   7.640  0.00  0.00    -0.479 OA
ATOM     12  HXT ILE A   1      21.961   6.803   7.322  0.00  0.00    +0.295 HD
ENDBRANCH   9  11
ENDBRANCH   1   9
TORSDOF 5
ENDMDL
MODEL 2
REMARK VINA RESULT:      -4.2      2.671      3.902
REMARK  Name = peptide_28_EQGAKIMDGQ
REMARK  7 active torsions:
REMARK  status: ('A' for Active; 'I' for Inactive)
REMARK    1  A    between atoms: N_1  and  CA_2
REMARK    2  A    between atoms: CA_2  and  CB_3
REMARK    3  A    between atoms: CA_2  and  C_7
REMARK    4  A    between atoms: CB_3  and  CG2_4
REMARK    5  A    between atoms: CB_3  and  CG1_5
REMARK    6  A    between atoms: CG1_5  and  CD1_6
REMARK    7  A    between atoms: C_7  and  OXT_9
REMARK                            x       y       z     vdW  Elec       q    Type
REMARK                         _______ _______ _______ _____ _____    ______ ____
ROOT
ATOM      1  CA  ILE A   1      19.161   4.370   9.694  0.00  0.00    +0.164 C 
ENDROOT
BRANCH   1   2
ATOM      2  N   ILE A   1      18.742   3.055   9.199  0.00  0.00    -0.318 NA
ATOM      3  H1  ILE A   1      18.722   2.381  10.000  0.00  0.00    +0.119 HD
ATOM      4  H2  ILE A   1      19.487   2.687   8.564  0.00  0.00    +0.119 HD
ENDBRANCH   1   2
BRANCH   1   5
ATOM      5  CB  ILE A   1      20.357   4.932   8.864  0.00  0.00    +0.013 C 
ATOM      6  CG2 ILE A   1      20.627   6.404   9.236  0.00  0.00    +0.009 C 
BRANCH   5   7
ATOM      7  CG1 ILE A   1      21.661   4.105   9.062  0.00  0.00    +0.002 C 
ATOM      8  CD1 ILE A   1      22.908   4.987   9.151  0.00  0.00    +0.004 C 
ENDBRANCH   5   7
ENDBRANCH   1   5
BRANCH   1   9
ATOM      9  C   ILE A   1      17.986   5.312   9.633  0.00  0.00    +0.322 C 
ATOM     10  O   ILE A   1      17.418   5.545   8.532  0.00  0.00    -0.249 OA
BRANCH   9  11
ATOM     11  OXT ILE A   1      17.524   5.926  10.794  0.00  0.00    -0.479 OA
ATOM     12  HXT ILE A   1      16.637   5.659  11.205  0.00  0.00    +0.295 HD
ENDBRANCH   9  11
ENDBRANCH   1   9
TORSDOF 5
ENDMDL
MODEL 3
REMARK VINA RESULT:      -4.0     35.983     36.742
REMARK  Name = peptide_28_EQGAKIMDGQ
REMARK  7 active torsions:
REMARK  status: ('A' for Active; 'I' for Inactive)
REMARK    1  A    between atoms: N_1  and  CA_2
REMARK    2  A    between atoms: CA_2  and  CB_3
REMARK    3  A    between atoms: CA_2  and  C_7
REMARK    4  A    between atoms: CB_3  and  CG2_4
REMARK    5  A    between atoms: CB_3  and  CG1_5
REMARK    6  A    between atoms: CG1_5  and  CD1_6
REMARK    7  A    between atoms: C_7  and  OXT_9
REMARK                            x       y       z     vdW  Elec       q    Type
REMARK                         _______ _______ _______ _____ _____    ______ ____
ROOT
ATOM      1  CA  ILE A   1       9.968  -4.907  42.597  0.00  0.00    +0.164 C 
ENDROOT
BRANCH   1   2
ATOM      2  N   ILE A   1       9.031  -3.821  42.292  0.00  0.00    -0.318 NA
ATOM      3  H1  ILE A   1       8.150  -3.969  42.839  0.00  0.00    +0.119 HD
ATOM      4  H2  ILE A   1       8.739  -3.905  41.292  0.00  0.00    +0.119 HD
ENDBRANCH   1   2
BRANCH   1   5
ATOM      5  CB  ILE A   1      11.422  -4.368  42.773  0.00  0.00    +0.013 C 
ATOM      6  CG2 ILE A   1      12.448  -5.488  42.513  0.00  0.00    +0.009 C 
BRANCH   5   7
ATOM      7  CG1 ILE A   1      11.728  -3.163  41.836  0.00  0.00    +0.002 C 
ATOM      8  CD1 ILE A   1      13.199  -3.103  41.417  0.00  0.00    +0.004 C 
ENDBRANCH   5   7
ENDBRANCH   1   5
BRANCH   1   9
ATOM      9  C   ILE A   1       9.510  -5.611  43.849  0.00  0.00    +0.322 C 
ATOM     10  O   ILE A   1       9.767  -6.833  44.017  0.00  0.00    -0.249 OA
BRANCH   9  11
ATOM     11  OXT ILE A   1       8.806  -4.910  44.824  0.00  0.00    -0.479 OA
ATOM     12  HXT ILE A   1       8.542  -5.355  45.695  0.00  0.00    +0.295 HD
ENDBRANCH   9  11
ENDBRANCH   1   9
TORSDOF 5
ENDMDL
MODEL 4
REMARK VINA RESULT:      -4.0     24.747     25.824
REMARK  Name = peptide_28_EQGAKIMDGQ
REMARK  7 active torsions:
REMARK  status: ('A' for Active; 'I' for Inactive)
REMARK    1  A    between atoms: N_1  and  CA_2
REMARK    2  A    between atoms: CA_2  and  CB_3
REMARK    3  A    between atoms: CA_2  and  C_7
REMARK    4  A    between atoms: CB_3  and  CG2_4
REMARK    5  A    between atoms: CB_3  and  CG1_5
REMARK    6  A    between atoms: CG1_5  and  CD1_6
REMARK    7  A    between atoms: C_7  and  OXT_9
REMARK                            x       y       z     vdW  Elec       q    Type
REMARK                         _______ _______ _______ _____ _____    ______ ____
ROOT
ATOM      1  CA  ILE A   1       5.819  -2.598  28.362  0.00  0.00    +0.164 C 
ENDROOT
BRANCH   1   2
ATOM      2  N   ILE A   1       5.770  -1.928  27.058  0.00  0.00    -0.318 NA
ATOM      3  H1  ILE A   1       4.772  -1.868  26.744  0.00  0.00    +0.119 HD
ATOM      4  H2  ILE A   1       6.233  -2.542  26.352  0.00  0.00    +0.119 HD
ENDBRANCH   1   2
BRANCH   1   5
ATOM      5  CB  ILE A   1       5.178  -4.019  28.291  0.00  0.00    +0.013 C 
ATOM      6  CG2 ILE A   1       5.325  -4.744  29.644  0.00  0.00    +0.009 C 
BRANCH   5   7
ATOM      7  CG1 ILE A   1       3.674  -3.975  27.892  0.00  0.00    +0.002 C 
ATOM      8  CD1 ILE A   1       2.903  -5.208  28.371  0.00  0.00    +0.004 C 
ENDBRANCH   5   7
ENDBRANCH   1   5
BRANCH   1   9
ATOM      9  C   ILE A   1       7.255  -2.688  28.812  0.00  0.00    +0.322 C 
ATOM     10  O   ILE A   1       8.107  -3.276  28.094  0.00  0.00    -0.249 OA
BRANCH   9  11
ATOM     11  OXT ILE A   1       7.643  -2.117  30.021  0.00  0.00    -0.479 OA
ATOM     12  HXT ILE A   1       8.621  -2.063  30.280  0.00  0.00    +0.295 HD
ENDBRANCH   9  11
ENDBRANCH   1   9
TORSDOF 5
ENDMDL
MODEL 5
REMARK VINA RESULT:      -3.9     20.874     21.547
REMARK  Name = peptide_28_EQGAKIMDGQ
REMARK  7 active torsions:
REMARK  status: ('A' for Active; 'I' for Inactive)
REMARK    1  A    between atoms: N_1  and  CA_2
REMARK    2  A    between atoms: CA_2  and  CB_3
REMARK    3  A    between atoms: CA_2  and  C_7
REMARK    4  A    between atoms: CB_3  and  CG2_4
REMARK    5  A    between atoms: CB_3  and  CG1_5
REMARK    6  A    between atoms: CG1_5  and  CD1_6
REMARK    7  A    between atoms: C_7  and  OXT_9
REMARK                            x       y       z     vdW  Elec       q    Type
REMARK                         _______ _______ _______ _____ _____    ______ ____
ROOT
ATOM      1  CA  ILE A   1       8.518   7.305  25.735  0.00  0.00    +0.164 C 
ENDROOT
BRANCH   1   2
ATOM      2  N   ILE A   1       8.927   8.323  26.708  0.00  0.00    -0.318 NA
ATOM      3  H1  ILE A   1       8.205   9.081  26.730  0.00  0.00    +0.119 HD
ATOM      4  H2  ILE A   1       9.791   8.792  26.354  0.00  0.00    +0.119 HD
ENDBRANCH   1   2
BRANCH   1   5
ATOM      5  CB  ILE A   1       8.983   5.882  26.178  0.00  0.00    +0.013 C 
ATOM      6  CG2 ILE A   1      10.180   5.982  27.144  0.00  0.00    +0.009 C 
BRANCH   5   7
ATOM      7  CG1 ILE A   1       7.843   5.066  26.854  0.00  0.00    +0.002 C 
ATOM      8  CD1 ILE A   1       8.298   4.380  28.144  0.00  0.00    +0.004 C 
ENDBRANCH   5   7
ENDBRANCH   1   5
BRANCH   1   9
ATOM      9  C   ILE A   1       7.019   7.348  25.583  0.00  0.00    +0.322 C 
ATOM     10  O   ILE A   1       6.301   7.795  26.516  0.00  0.00    -0.249 OA
BRANCH   9  11
ATOM     11  OXT ILE A   1       6.426   6.895  24.407  0.00  0.00    -0.479 OA
ATOM     12  HXT ILE A   1       6.612   5.963  24.057  0.00  0.00    +0.295 HD
ENDBRANCH   9  11
ENDBRANCH   1   9
TORSDOF 5
ENDMDL
MODEL 6
REMARK VINA RESULT:      -3.9     22.738     23.743
REMARK  Name = peptide_28_EQGAKIMDGQ
REMARK  7 active torsions:
REMARK  status: ('A' for Active; 'I' for Inactive)
REMARK    1  A    between atoms: N_1  and  CA_2
REMARK    2  A    between atoms: CA_2  and  CB_3
REMARK    3  A    between atoms: CA_2  and  C_7
REMARK    4  A    between atoms: CB_3  and  CG2_4
REMARK    5  A    between atoms: CB_3  and  CG1_5
REMARK    6  A    between atoms: CG1_5  and  CD1_6
REMARK    7  A    between atoms: C_7  and  OXT_9
REMARK                            x       y       z     vdW  Elec       q    Type
REMARK                         _______ _______ _______ _____ _____    ______ ____
ROOT
ATOM      1  CA  ILE A   1       5.139  -2.963  26.078  0.00  0.00    +0.164 C 
ENDROOT
BRANCH   1   2
ATOM      2  N   ILE A   1       5.818  -2.045  26.999  0.00  0.00    -0.318 NA
ATOM      3  H1  ILE A   1       6.848  -2.079  26.814  0.00  0.00    +0.119 HD
ATOM      4  H2  ILE A   1       5.712  -2.413  27.971  0.00  0.00    +0.119 HD
ENDBRANCH   1   2
BRANCH   1   5
ATOM      5  CB  ILE A   1       5.251  -2.468  24.602  0.00  0.00    +0.013 C 
ATOM      6  CG2 ILE A   1       3.917  -2.679  23.860  0.00  0.00    +0.009 C 
BRANCH   5   7
ATOM      7  CG1 ILE A   1       5.663  -0.971  24.505  0.00  0.00    +0.002 C 
ATOM      8  CD1 ILE A   1       4.461  -0.043  24.310  0.00  0.00    +0.004 C 
ENDBRANCH   5   7
ENDBRANCH   1   5
BRANCH   1   9
ATOM      9  C   ILE A   1       5.742  -4.337  26.223  0.00  0.00    +0.322 C 
ATOM     10  O   ILE A   1       5.365  -5.099  27.153  0.00  0.00    -0.249 OA
BRANCH   9  11
ATOM     11  OXT ILE A   1       6.715  -4.768  25.325  0.00  0.00    -0.479 OA
ATOM     12  HXT ILE A   1       6.764  -5.739  25.040  0.00  0.00    +0.295 HD
ENDBRANCH   9  11
ENDBRANCH   1   9
TORSDOF 5
ENDMDL
MODEL 7
REMARK VINA RESULT:      -3.9     20.046     21.177
REMARK  Name = peptide_28_EQGAKIMDGQ
REMARK  7 active torsions:
REMARK  status: ('A' for Active; 'I' for Inactive)
REMARK    1  A    between atoms: N_1  and  CA_2
REMARK    2  A    between atoms: CA_2  and  CB_3
REMARK    3  A    between atoms: CA_2  and  C_7
REMARK    4  A    between atoms: CB_3  and  CG2_4
REMARK    5  A    between atoms: CB_3  and  CG1_5
REMARK    6  A    between atoms: CG1_5  and  CD1_6
REMARK    7  A    between atoms: C_7  and  OXT_9
REMARK                            x       y       z     vdW  Elec       q    Type
REMARK                         _______ _______ _______ _____ _____    ______ ____
ROOT
ATOM      1  CA  ILE A   1       8.072   5.833  26.249  0.00  0.00    +0.164 C 
ENDROOT
BRANCH   1   2
ATOM      2  N   ILE A   1       6.791   6.329  26.763  0.00  0.00    -0.318 NA
ATOM      3  H1  ILE A   1       6.761   6.180  27.800  0.00  0.00    +0.119 HD
ATOM      4  H2  ILE A   1       6.027   5.725  26.387  0.00  0.00    +0.119 HD
ENDBRANCH   1   2
BRANCH   1   5
ATOM      5  CB  ILE A   1       9.122   6.983  26.142  0.00  0.00    +0.013 C 
ATOM      6  CG2 ILE A   1      10.080   6.729  24.961  0.00  0.00    +0.009 C 
BRANCH   5   7
ATOM      7  CG1 ILE A   1       8.459   8.381  25.974  0.00  0.00    +0.002 C 
ATOM      8  CD1 ILE A   1       8.471   8.867  24.523  0.00  0.00    +0.004 C 
ENDBRANCH   5   7
ENDBRANCH   1   5
BRANCH   1   9
ATOM      9  C   ILE A   1       8.575   4.742  27.160  0.00  0.00    +0.322 C 
ATOM     10  O   ILE A   1       8.245   4.731  28.376  0.00  0.00    -0.249 OA
BRANCH   9  11
ATOM     11  OXT ILE A   1       9.403   3.742  26.657  0.00  0.00    -0.479 OA
ATOM     12  HXT ILE A   1      10.082   3.282  27.252  0.00  0.00    +0.295 HD
ENDBRANCH   9  11
ENDBRANCH   1   9
TORSDOF 5
ENDMDL
MODEL 8
REMARK VINA RESULT:      -3.8     21.306     21.949
REMARK  Name = peptide_28_EQGAKIMDGQ
REMARK  7 active torsions:
REMARK  status: ('A' for Active; 'I' for Inactive)
REMARK    1  A    between atoms: N_1  and  CA_2
REMARK    2  A    between atoms: CA_2  and  CB_3
REMARK    3  A    between atoms: CA_2  and  C_7
REMARK    4  A    between atoms: CB_3  and  CG2_4
REMARK    5  A    between atoms: CB_3  and  CG1_5
REMARK    6  A    between atoms: CG1_5  and  CD1_6
REMARK    7  A    between atoms: C_7  and  OXT_9
REMARK                            x       y       z     vdW  Elec       q    Type
REMARK                         _______ _______ _______ _____ _____    ______ ____
ROOT
ATOM      1  CA  ILE A   1      15.823   3.696  30.678  0.00  0.00    +0.164 C 
ENDROOT
BRANCH   1   2
ATOM      2  N   ILE A   1      17.027   4.497  30.438  0.00  0.00    -0.318 NA
ATOM      3  H1  ILE A   1      17.132   4.654  29.408  0.00  0.00    +0.119 HD
ATOM      4  H2  ILE A   1      17.862   3.928  30.704  0.00  0.00    +0.119 HD
ENDBRANCH   1   2
BRANCH   1   5
ATOM      5  CB  ILE A   1      14.571   4.605  30.885  0.00  0.00    +0.013 C 
ATOM      6  CG2 ILE A   1      14.590   5.236  32.291  0.00  0.00    +0.009 C 
BRANCH   5   7
ATOM      7  CG1 ILE A   1      14.470   5.732  29.817  0.00  0.00    +0.002 C 
ATOM      8  CD1 ILE A   1      13.270   6.653  30.046  0.00  0.00    +0.004 C 
ENDBRANCH   5   7
ENDBRANCH   1   5
BRANCH   1   9
ATOM      9  C   ILE A   1      15.613   2.766  29.509  0.00  0.00    +0.322 C 
ATOM     10  O   ILE A   1      16.041   3.080  28.366  0.00  0.00    -0.249 OA
BRANCH   9  11
ATOM     11  OXT ILE A   1      14.948   1.557  29.693  0.00  0.00    -0.479 OA
ATOM     12  HXT ILE A   1      15.416   0.675  29.518  0.00  0.00    +0.295 HD
ENDBRANCH   9  11
ENDBRANCH   1   9
TORSDOF 5
ENDMDL
MODEL 9
REMARK VINA RESULT:      -3.7     18.459     19.068
REMARK  Name = peptide_28_EQGAKIMDGQ
REMARK  7 active torsions:
REMARK  status: ('A' for Active; 'I' for Inactive)
REMARK    1  A    between atoms: N_1  and  CA_2
REMARK    2  A    between atoms: CA_2  and  CB_3
REMARK    3  A    between atoms: CA_2  and  C_7
REMARK    4  A    between atoms: CB_3  and  CG2_4
REMARK    5  A    between atoms: CB_3  and  CG1_5
REMARK    6  A    between atoms: CG1_5  and  CD1_6
REMARK    7  A    between atoms: C_7  and  OXT_9
REMARK                            x       y       z     vdW  Elec       q    Type
REMARK                         _______ _______ _______ _____ _____    ______ ____
ROOT
ATOM      1  CA  ILE A   1      23.442   8.652  26.648  0.00  0.00    +0.164 C 
ENDROOT
BRANCH   1   2
ATOM      2  N   ILE A   1      23.700   9.443  25.440  0.00  0.00    -0.318 NA
ATOM      3  H1  ILE A   1      23.751   8.798  24.617  0.00  0.00    +0.119 HD
ATOM      4  H2  ILE A   1      24.657   9.856  25.513  0.00  0.00    +0.119 HD
ENDBRANCH   1   2
BRANCH   1   5
ATOM      5  CB  ILE A   1      23.099   9.571  27.863  0.00  0.00    +0.013 C 
ATOM      6  CG2 ILE A   1      23.948   9.181  29.089  0.00  0.00    +0.009 C 
BRANCH   5   7
ATOM      7  CG1 ILE A   1      23.313  11.080  27.548  0.00  0.00    +0.002 C 
ATOM      8  CD1 ILE A   1      24.437  11.700  28.381  0.00  0.00    +0.004 C 
ENDBRANCH   5   7
ENDBRANCH   1   5
BRANCH   1   9
ATOM      9  C   ILE A   1      22.310   7.695  26.374  0.00  0.00    +0.322 C 
ATOM     10  O   ILE A   1      21.538   7.890  25.398  0.00  0.00    -0.249 OA
BRANCH   9  11
ATOM     11  OXT ILE A   1      22.119   6.589  27.199  0.00  0.00    -0.479 OA
ATOM     12  HXT ILE A   1      22.867   5.924  27.357  0.00  0.00    +0.295 HD
ENDBRANCH   9  11
ENDBRANCH   1   9
TORSDOF 5
ENDMDL
