REMARK  Name = peptide_14_GDNRCCNDRK
REMARK  4 active torsions:
REMARK  status: ('A' for Active; 'I' for Inactive)
REMARK    1  A    between atoms: N_1  and  CA_2
REMARK    2  A    between atoms: CA_2  and  CB_3
REMARK    3  A    between atoms: CA_2  and  C_4
REMARK    4  A    between atoms: C_4  and  OXT_6
REMARK                            x       y       z     vdW  Elec       q    Type
REMARK                         _______ _______ _______ _____ _____    ______ ____
ROOT
ATOM      1  CA  ALA A   1      -0.312   0.072   0.370  0.00  0.00    +0.158 C 
ATOM      2  CB  ALA A   1      -1.304  -0.549  -0.615  0.00  0.00    +0.036 C 
ENDROOT
BRANCH   1   3
ATOM      3  N   ALA A   1      -0.505   1.522   0.432  0.00  0.00    -0.319 NA
ATOM      4  H1  ALA A   1       0.148   1.916   1.149  0.00  0.00    +0.119 HD
ATOM      5  H2  ALA A   1      -0.254   1.950  -0.489  0.00  0.00    +0.119 HD
ENDBRANCH   1   3
BRANCH   1   6
ATOM      6  C   ALA A   1       1.104  -0.270  -0.010  0.00  0.00    +0.321 C 
ATOM      7  O   ALA A   1       1.582   0.122  -1.109  0.00  0.00    -0.249 OA
BRANCH   6   8
ATOM      8  OXT ALA A   1       1.888  -1.025   0.856  0.00  0.00    -0.479 OA
ATOM      9  HXT ALA A   1       2.843  -1.265   0.617  0.00  0.00    +0.295 HD
ENDBRANCH   6   8
ENDBRANCH   1   6
TORSDOF 3
