REMARK  Name = peptide_43_NHERHLHQGH
REMARK  7 active torsions:
REMARK  status: ('A' for Active; 'I' for Inactive)
REMARK    1  A    between atoms: N_1  and  CA_2
REMARK    2  A    between atoms: CA_2  and  CB_3
REMARK    3  A    between atoms: CA_2  and  C_7
REMARK    4  A    between atoms: CB_3  and  CG_4
REMARK    5  A    between atoms: CG_4  and  CD1_5
REMARK    6  A    between atoms: CG_4  and  CD2_6
REMARK    7  A    between atoms: C_7  and  OXT_9
REMARK                            x       y       z     vdW  Elec       q    Type
REMARK                         _______ _______ _______ _____ _____    ______ ____
ROOT
ATOM      1  CA  LEU A   1       1.294  -0.348   0.007  0.00  0.00    +0.161 C 
ENDROOT
BRANCH   1   2
ATOM      2  N   LEU A   1       1.416  -0.334   1.467  0.00  0.00    -0.318 NA
ATOM      3  H1  LEU A   1       2.265  -0.883   1.737  0.00  0.00    +0.119 HD
ATOM      4  H2  LEU A   1       1.558   0.648   1.799  0.00  0.00    +0.119 HD
ENDBRANCH   1   2
BRANCH   1   5
ATOM      5  C   LEU A   1       2.504   0.296  -0.618  0.00  0.00    +0.322 C 
ATOM      6  O   LEU A   1       3.305  -0.398  -1.301  0.00  0.00    -0.249 OA
BRANCH   5   7
ATOM      7  OXT LEU A   1       2.748   1.654  -0.432  0.00  0.00    -0.479 OA
ATOM      8  HXT LEU A   1       3.561   2.097  -0.844  0.00  0.00    +0.295 HD
ENDBRANCH   5   7
ENDBRANCH   1   5
BRANCH   1   9
ATOM      9  CB  LEU A   1       0.005   0.380  -0.442  0.00  0.00    +0.033 C 
BRANCH   9  10
ATOM     10  CG  LEU A   1      -1.280  -0.470  -0.286  0.00  0.00    -0.015 C 
ATOM     11  CD1 LEU A   1      -2.459   0.239  -0.966  0.00  0.00    +0.007 C 
ATOM     12  CD2 LEU A   1      -1.622  -0.751   1.185  0.00  0.00    +0.007 C 
ENDBRANCH   9  10
ENDBRANCH   1   9
TORSDOF 5
