REMARK  Name = peptide_17_ECYSRCYDQK
REMARK  5 active torsions:
REMARK  status: ('A' for Active; 'I' for Inactive)
REMARK    1  A    between atoms: N_1  and  CA_2
REMARK    2  A    between atoms: CA_2  and  CB_3
REMARK    3  A    between atoms: CA_2  and  C_13
REMARK    4  A    between atoms: CB_3  and  CG_4
REMARK    5  A    between atoms: C_13  and  OXT_15
REMARK                            x       y       z     vdW  Elec       q    Type
REMARK                         _______ _______ _______ _____ _____    ______ ____
ROOT
ATOM      1  CG  TRP A   1      -0.187  -0.927  -0.121  0.00  0.00    -0.020 A 
ATOM      2  CD1 TRP A   1      -0.325  -1.361  -1.436  0.00  0.00    +0.087 A 
ATOM      3  NE1 TRP A   1       0.810  -1.123  -2.133  0.00  0.00    -0.360 N 
ATOM      4  CE2 TRP A   1       1.657  -0.532  -1.272  0.00  0.00    +0.047 A 
ATOM      5  CZ2 TRP A   1       2.950  -0.081  -1.534  0.00  0.00    +0.026 A 
ATOM      6  CH2 TRP A   1       3.659   0.531  -0.484  0.00  0.00    +0.002 A 
ATOM      7  CZ3 TRP A   1       3.065   0.679   0.789  0.00  0.00    +0.001 A 
ATOM      8  CE3 TRP A   1       1.758   0.216   1.024  0.00  0.00    +0.010 A 
ATOM      9  CD2 TRP A   1       1.083  -0.391  -0.035  0.00  0.00    +0.003 A 
ATOM     10  HE1 TRP A   1       0.983  -1.341  -3.139  0.00  0.00    +0.165 HD
ENDROOT
BRANCH   1  11
ATOM     11  CB  TRP A   1      -1.246  -0.948   0.945  0.00  0.00    +0.067 C 
BRANCH  11  12
ATOM     12  CA  TRP A   1      -1.950   0.418   1.072  0.00  0.00    +0.165 C 
BRANCH  12  13
ATOM     13  N   TRP A   1      -2.865   0.432   2.215  0.00  0.00    -0.318 NA
ATOM     14  H1  TRP A   1      -2.304   0.327   3.092  0.00  0.00    +0.119 HD
ATOM     15  H2  TRP A   1      -3.508  -0.392   2.159  0.00  0.00    +0.119 HD
ENDBRANCH  12  13
BRANCH  12  16
ATOM     16  C   TRP A   1      -2.704   0.761  -0.183  0.00  0.00    +0.322 C 
ATOM     17  O   TRP A   1      -3.738   0.115  -0.503  0.00  0.00    -0.249 OA
BRANCH  16  18
ATOM     18  OXT TRP A   1      -2.239   1.778  -1.012  0.00  0.00    -0.479 OA
ATOM     19  HXT TRP A   1      -2.726   2.013  -1.869  0.00  0.00    +0.295 HD
ENDBRANCH  16  18
ENDBRANCH  12  16
ENDBRANCH  11  12
ENDBRANCH   1  11
TORSDOF 5
