REMARK  Name = peptide_33_HTHHDAYRVI
REMARK  5 active torsions:
REMARK  status: ('A' for Active; 'I' for Inactive)
REMARK    1  A    between atoms: N_1  and  CA_2
REMARK    2  A    between atoms: CA_2  and  CB_3
REMARK    3  A    between atoms: CA_2  and  C_10
REMARK    4  A    between atoms: CB_3  and  CG_4
REMARK    5  A    between atoms: C_10  and  OXT_12
REMARK                            x       y       z     vdW  Elec       q    Type
REMARK                         _______ _______ _______ _____ _____    ______ ____
ROOT
ATOM      1  CA  PHE A   1      -1.507  -0.833   0.674  0.00  0.00    +0.165 C 
ENDROOT
BRANCH   1   2
ATOM      2  N   PHE A   1      -2.752  -1.603   0.623  0.00  0.00    -0.318 NA
ATOM      3  H1  PHE A   1      -2.517  -2.607   0.448  0.00  0.00    +0.119 HD
ATOM      4  H2  PHE A   1      -3.333  -1.275  -0.183  0.00  0.00    +0.119 HD
ENDBRANCH   1   2
BRANCH   1   5
ATOM      5  C   PHE A   1      -1.811   0.576   1.102  0.00  0.00    +0.322 C 
ATOM      6  O   PHE A   1      -1.253   1.060   2.123  0.00  0.00    -0.249 OA
BRANCH   5   7
ATOM      7  OXT PHE A   1      -2.697   1.354   0.362  0.00  0.00    -0.479 OA
ATOM      8  HXT PHE A   1      -2.903   2.308   0.635  0.00  0.00    +0.295 HD
ENDBRANCH   5   7
ENDBRANCH   1   5
BRANCH   1   9
ATOM      9  CB  PHE A   1      -0.786  -0.860  -0.690  0.00  0.00    +0.065 C 
BRANCH   9  10
ATOM     10  CG  PHE A   1       0.575  -0.215  -0.614  0.00  0.00    -0.045 A 
ATOM     11  CD1 PHE A   1       1.673  -0.938  -0.117  0.00  0.00    +0.003 A 
ATOM     12  CE1 PHE A   1       2.929  -0.331  -0.018  0.00  0.00    +0.000 A 
ATOM     13  CZ  PHE A   1       3.096   1.001  -0.407  0.00  0.00    +0.000 A 
ATOM     14  CE2 PHE A   1       2.007   1.730  -0.892  0.00  0.00    +0.000 A 
ATOM     15  CD2 PHE A   1       0.750   1.127  -0.993  0.00  0.00    +0.003 A 
ENDBRANCH   9  10
ENDBRANCH   1   9
TORSDOF 5
