REMARK  Name = peptide_9_VGAGRGRCNS
REMARK  6 active torsions:
REMARK  status: ('A' for Active; 'I' for Inactive)
REMARK    1  A    between atoms: N_1  and  CA_2
REMARK    2  A    between atoms: CA_2  and  CB_3
REMARK    3  A    between atoms: CA_2  and  C_6
REMARK    4  A    between atoms: CB_3  and  CG1_4
REMARK    5  A    between atoms: CB_3  and  CG2_5
REMARK    6  A    between atoms: C_6  and  OXT_8
REMARK                            x       y       z     vdW  Elec       q    Type
REMARK                         _______ _______ _______ _____ _____    ______ ____
ROOT
ATOM      1  CA  VAL A   1       0.483  -0.325  -0.627  0.00  0.00    +0.163 C 
ENDROOT
BRANCH   1   2
ATOM      2  N   VAL A   1       1.264  -1.530  -0.333  0.00  0.00    -0.318 NA
ATOM      3  H1  VAL A   1       1.857  -1.365   0.514  0.00  0.00    +0.119 HD
ATOM      4  H2  VAL A   1       1.907  -1.721  -1.136  0.00  0.00    +0.119 HD
ENDBRANCH   1   2
BRANCH   1   5
ATOM      5  CB  VAL A   1      -0.543  -0.049   0.504  0.00  0.00    +0.011 C 
ATOM      6  CG1 VAL A   1      -1.409   1.183   0.191  0.00  0.00    +0.009 C 
ATOM      7  CG2 VAL A   1      -1.454  -1.266   0.734  0.00  0.00    +0.009 C 
ENDBRANCH   1   5
BRANCH   1   8
ATOM      8  C   VAL A   1       1.411   0.847  -0.833  0.00  0.00    +0.322 C 
ATOM      9  O   VAL A   1       1.486   1.401  -1.962  0.00  0.00    -0.249 OA
BRANCH   8  10
ATOM     10  OXT VAL A   1       2.192   1.313   0.221  0.00  0.00    -0.479 OA
ATOM     11  HXT VAL A   1       2.820   2.098   0.094  0.00  0.00    +0.295 HD
ENDBRANCH   8  10
ENDBRANCH   1   8
TORSDOF 4
