REMARK  Name = peptide_25_STYKTCKCKN
REMARK  6 active torsions:
REMARK  status: ('A' for Active; 'I' for Inactive)
REMARK    1  A    between atoms: N_1  and  CA_2
REMARK    2  A    between atoms: CA_2  and  CB_3
REMARK    3  A    between atoms: CA_2  and  C_11
REMARK    4  A    between atoms: CB_3  and  CG_4
REMARK    5  A    between atoms: CZ_7  and  OH_8
REMARK    6  A    between atoms: C_11  and  OXT_13
REMARK                            x       y       z     vdW  Elec       q    Type
REMARK                         _______ _______ _______ _____ _____    ______ ____
ROOT
ATOM      1  CB  TYR A   1      -0.974   0.806   0.113  0.00  0.00    +0.065 C 
ENDROOT
BRANCH   1   2
ATOM      2  CG  TYR A   1       0.499   0.510   0.000  0.00  0.00    -0.045 A 
ATOM      3  CD1 TYR A   1       1.126   0.484  -1.257  0.00  0.00    +0.007 A 
ATOM      4  CE1 TYR A   1       2.487   0.182  -1.360  0.00  0.00    +0.045 A 
ATOM      5  CZ  TYR A   1       3.233  -0.105  -0.212  0.00  0.00    +0.117 A 
ATOM      6  CE2 TYR A   1       2.611  -0.090   1.043  0.00  0.00    +0.045 A 
ATOM      7  CD2 TYR A   1       1.250   0.212   1.149  0.00  0.00    +0.007 A 
BRANCH   5   8
ATOM      8  OH  TYR A   1       4.589  -0.405  -0.330  0.00  0.00    -0.507 OA
ATOM      9  HH  TYR A   1       5.156  -0.618   0.482  0.00  0.00    +0.292 HD
ENDBRANCH   5   8
ENDBRANCH   1   2
BRANCH   1  10
ATOM     10  CA  TYR A   1      -1.804  -0.489   0.157  0.00  0.00    +0.165 C 
BRANCH  10  11
ATOM     11  N   TYR A   1      -1.645  -1.248  -1.086  0.00  0.00    -0.318 NA
ATOM     12  H1  TYR A   1      -2.047  -0.703  -1.884  0.00  0.00    +0.119 HD
ATOM     13  H2  TYR A   1      -2.190  -2.138  -1.008  0.00  0.00    +0.119 HD
ENDBRANCH  10  11
BRANCH  10  14
ATOM     14  C   TYR A   1      -3.255  -0.177   0.411  0.00  0.00    +0.322 C 
ATOM     15  O   TYR A   1      -3.916   0.503  -0.419  0.00  0.00    -0.249 OA
BRANCH  14  16
ATOM     16  OXT TYR A   1      -3.869  -0.640   1.571  0.00  0.00    -0.479 OA
ATOM     17  HXT TYR A   1      -4.844  -0.438   1.759  0.00  0.00    +0.295 HD
ENDBRANCH  14  16
ENDBRANCH  10  14
ENDBRANCH   1  10
TORSDOF 6
