REMARK  Name = peptide_3_RIPHHCKDRP
REMARK  7 active torsions:
REMARK  status: ('A' for Active; 'I' for Inactive)
REMARK    1  A    between atoms: N_1  and  CA_2
REMARK    2  A    between atoms: CA_2  and  CB_3
REMARK    3  A    between atoms: CA_2  and  C_7
REMARK    4  A    between atoms: CB_3  and  CG2_4
REMARK    5  A    between atoms: CB_3  and  CG1_5
REMARK    6  A    between atoms: CG1_5  and  CD1_6
REMARK    7  A    between atoms: C_7  and  OXT_9
REMARK                            x       y       z     vdW  Elec       q    Type
REMARK                         _______ _______ _______ _____ _____    ______ ____
ROOT
ATOM      1  CA  ILE A   1       1.014  -0.385   0.270  0.00  0.00    +0.164 C 
ENDROOT
BRANCH   1   2
ATOM      2  N   ILE A   1       1.235   0.499   1.419  0.00  0.00    -0.318 NA
ATOM      3  H1  ILE A   1       2.226   0.395   1.742  0.00  0.00    +0.119 HD
ATOM      4  H2  ILE A   1       0.659   0.153   2.219  0.00  0.00    +0.119 HD
ENDBRANCH   1   2
BRANCH   1   5
ATOM      5  CB  ILE A   1      -0.359  -0.093  -0.412  0.00  0.00    +0.013 C 
ATOM      6  CG2 ILE A   1      -0.597  -1.067  -1.583  0.00  0.00    +0.009 C 
BRANCH   5   7
ATOM      7  CG1 ILE A   1      -1.551  -0.186   0.584  0.00  0.00    +0.002 C 
ATOM      8  CD1 ILE A   1      -1.946   1.177   1.157  0.00  0.00    +0.004 C 
ENDBRANCH   5   7
ENDBRANCH   1   5
BRANCH   1   9
ATOM      9  C   ILE A   1       2.142  -0.201  -0.713  0.00  0.00    +0.322 C 
ATOM     10  O   ILE A   1       2.842  -1.188  -1.065  0.00  0.00    -0.249 OA
BRANCH   9  11
ATOM     11  OXT ILE A   1       2.410   1.061  -1.237  0.00  0.00    -0.479 OA
ATOM     12  HXT ILE A   1       3.163   1.198  -1.901  0.00  0.00    +0.295 HD
ENDBRANCH   9  11
ENDBRANCH   1   9
TORSDOF 5
