MODEL 1
REMARK VINA RESULT:      -6.2      0.000      0.000
REMARK  Name = peptide_4_KKWPKYCFCL
REMARK  5 active torsions:
REMARK  status: ('A' for Active; 'I' for Inactive)
REMARK    1  A    between atoms: N_1  and  CA_2
REMARK    2  A    between atoms: CA_2  and  CB_3
REMARK    3  A    between atoms: CA_2  and  C_13
REMARK    4  A    between atoms: CB_3  and  CG_4
REMARK    5  A    between atoms: C_13  and  OXT_15
REMARK                            x       y       z     vdW  Elec       q    Type
REMARK                         _______ _______ _______ _____ _____    ______ ____
ROOT
ATOM      1  CG  TRP A   1      18.358   5.335   9.121  0.00  0.00    -0.020 A 
ATOM      2  CD1 TRP A   1      18.145   3.960   9.114  0.00  0.00    +0.087 A 
ATOM      3  NE1 TRP A   1      19.326   3.299   9.153  0.00  0.00    -0.360 N 
ATOM      4  CE2 TRP A   1      20.280   4.246   9.172  0.00  0.00    +0.047 A 
ATOM      5  CZ2 TRP A   1      21.661   4.054   9.194  0.00  0.00    +0.026 A 
ATOM      6  CH2 TRP A   1      22.484   5.195   9.191  0.00  0.00    +0.002 A 
ATOM      7  CZ3 TRP A   1      21.915   6.488   9.163  0.00  0.00    +0.001 A 
ATOM      8  CE3 TRP A   1      20.519   6.651   9.139  0.00  0.00    +0.010 A 
ATOM      9  CD2 TRP A   1      19.729   5.501   9.149  0.00  0.00    +0.003 A 
ATOM     10  HE1 TRP A   1      19.463   2.265   9.153  0.00  0.00    +0.165 HD
ENDROOT
BRANCH   1  11
ATOM     11  CB  TRP A   1      17.308   6.404   9.013  0.00  0.00    +0.067 C 
BRANCH  11  12
ATOM     12  CA  TRP A   1      16.191   6.209  10.058  0.00  0.00    +0.165 C 
BRANCH  12  13
ATOM     13  N   TRP A   1      15.003   6.991   9.708  0.00  0.00    -0.318 NA
ATOM     14  H1  TRP A   1      14.514   6.515   8.914  0.00  0.00    +0.119 HD
ATOM     15  H2  TRP A   1      15.294   7.937   9.369  0.00  0.00    +0.119 HD
ENDBRANCH  12  13
BRANCH  12  16
ATOM     16  C   TRP A   1      16.659   6.591  11.435  0.00  0.00    +0.322 C 
ATOM     17  O   TRP A   1      17.357   7.626  11.607  0.00  0.00    -0.249 OA
BRANCH  16  18
ATOM     18  OXT TRP A   1      16.346   5.779  12.521  0.00  0.00    -0.479 OA
ATOM     19  HXT TRP A   1      17.067   5.255  13.003  0.00  0.00    +0.295 HD
ENDBRANCH  16  18
ENDBRANCH  12  16
ENDBRANCH  11  12
ENDBRANCH   1  11
TORSDOF 5
ENDMDL
MODEL 2
REMARK VINA RESULT:      -6.2     46.091     47.420
REMARK  Name = peptide_4_KKWPKYCFCL
REMARK  5 active torsions:
REMARK  status: ('A' for Active; 'I' for Inactive)
REMARK    1  A    between atoms: N_1  and  CA_2
REMARK    2  A    between atoms: CA_2  and  CB_3
REMARK    3  A    between atoms: CA_2  and  C_13
REMARK    4  A    between atoms: CB_3  and  CG_4
REMARK    5  A    between atoms: C_13  and  OXT_15
REMARK                            x       y       z     vdW  Elec       q    Type
REMARK                         _______ _______ _______ _____ _____    ______ ____
ROOT
ATOM      1  CG  TRP A   1      -9.495  -0.160  47.917  0.00  0.00    -0.020 A 
ATOM      2  CD1 TRP A   1      -9.850   1.185  47.887  0.00  0.00    +0.087 A 
ATOM      3  NE1 TRP A   1      -8.746   1.966  47.944  0.00  0.00    -0.360 N 
ATOM      4  CE2 TRP A   1      -7.700   1.124  48.023  0.00  0.00    +0.047 A 
ATOM      5  CZ2 TRP A   1      -6.351   1.461  48.121  0.00  0.00    +0.026 A 
ATOM      6  CH2 TRP A   1      -5.416   0.413  48.213  0.00  0.00    +0.002 A 
ATOM      7  CZ3 TRP A   1      -5.847  -0.932  48.207  0.00  0.00    +0.001 A 
ATOM      8  CE3 TRP A   1      -7.216  -1.242  48.109  0.00  0.00    +0.010 A 
ATOM      9  CD2 TRP A   1      -8.117  -0.182  48.014  0.00  0.00    +0.003 A 
ATOM     10  HE1 TRP A   1      -8.718   3.009  47.943  0.00  0.00    +0.165 HD
ENDROOT
BRANCH   1  11
ATOM     11  CB  TRP A   1     -10.433  -1.334  47.945  0.00  0.00    +0.067 C 
BRANCH  11  12
ATOM     12  CA  TRP A   1     -11.721  -1.049  47.147  0.00  0.00    +0.165 C 
BRANCH  12  13
ATOM     13  N   TRP A   1     -12.900  -1.543  47.861  0.00  0.00    -0.318 NA
ATOM     14  H1  TRP A   1     -13.353  -0.738  48.353  0.00  0.00    +0.119 HD
ATOM     15  H2  TRP A   1     -12.604  -2.227  48.596  0.00  0.00    +0.119 HD
ENDBRANCH  12  13
BRANCH  12  16
ATOM     16  C   TRP A   1     -11.663  -1.670  45.779  0.00  0.00    +0.322 C 
ATOM     17  O   TRP A   1     -11.645  -2.923  45.646  0.00  0.00    -0.249 OA
BRANCH  16  18
ATOM     18  OXT TRP A   1     -11.597  -0.854  44.652  0.00  0.00    -0.479 OA
ATOM     19  HXT TRP A   1     -11.137   0.048  44.691  0.00  0.00    +0.295 HD
ENDBRANCH  16  18
ENDBRANCH  12  16
ENDBRANCH  11  12
ENDBRANCH   1  11
TORSDOF 5
ENDMDL
MODEL 3
REMARK VINA RESULT:      -5.6      3.790      5.471
REMARK  Name = peptide_4_KKWPKYCFCL
REMARK  5 active torsions:
REMARK  status: ('A' for Active; 'I' for Inactive)
REMARK    1  A    between atoms: N_1  and  CA_2
REMARK    2  A    between atoms: CA_2  and  CB_3
REMARK    3  A    between atoms: CA_2  and  C_13
REMARK    4  A    between atoms: CB_3  and  CG_4
REMARK    5  A    between atoms: C_13  and  OXT_15
REMARK                            x       y       z     vdW  Elec       q    Type
REMARK                         _______ _______ _______ _____ _____    ______ ____
ROOT
ATOM      1  CG  TRP A   1      21.151   5.786   8.834  0.00  0.00    -0.020 A 
ATOM      2  CD1 TRP A   1      21.682   4.500   8.872  0.00  0.00    +0.087 A 
ATOM      3  NE1 TRP A   1      20.696   3.587   9.022  0.00  0.00    -0.360 N 
ATOM      4  CE2 TRP A   1      19.550   4.286   9.092  0.00  0.00    +0.047 A 
ATOM      5  CZ2 TRP A   1      18.262   3.782   9.266  0.00  0.00    +0.026 A 
ATOM      6  CH2 TRP A   1      17.198   4.702   9.332  0.00  0.00    +0.002 A 
ATOM      7  CZ3 TRP A   1      17.445   6.089   9.225  0.00  0.00    +0.001 A 
ATOM      8  CE3 TRP A   1      18.755   6.568   9.052  0.00  0.00    +0.010 A 
ATOM      9  CD2 TRP A   1      19.787   5.632   8.985  0.00  0.00    +0.003 A 
ATOM     10  HE1 TRP A   1      20.808   2.551   9.087  0.00  0.00    +0.165 HD
ENDROOT
BRANCH   1  11
ATOM     11  CB  TRP A   1      21.924   7.072   8.751  0.00  0.00    +0.067 C 
BRANCH  11  12
ATOM     12  CA  TRP A   1      23.107   7.088   9.740  0.00  0.00    +0.165 C 
BRANCH  12  13
ATOM     13  N   TRP A   1      22.928   8.130  10.754  0.00  0.00    -0.318 NA
ATOM     14  H1  TRP A   1      21.931   8.447  10.734  0.00  0.00    +0.119 HD
ATOM     15  H2  TRP A   1      23.520   8.959  10.511  0.00  0.00    +0.119 HD
ENDBRANCH  12  13
BRANCH  12  16
ATOM     16  C   TRP A   1      24.413   7.297   9.025  0.00  0.00    +0.322 C 
ATOM     17  O   TRP A   1      24.431   7.542   7.789  0.00  0.00    -0.249 OA
BRANCH  16  18
ATOM     18  OXT TRP A   1      25.610   7.189   9.727  0.00  0.00    -0.479 OA
ATOM     19  HXT TRP A   1      26.128   6.318   9.740  0.00  0.00    +0.295 HD
ENDBRANCH  16  18
ENDBRANCH  12  16
ENDBRANCH  11  12
ENDBRANCH   1  11
TORSDOF 5
ENDMDL
MODEL 4
REMARK VINA RESULT:      -5.4      1.536      2.029
REMARK  Name = peptide_4_KKWPKYCFCL
REMARK  5 active torsions:
REMARK  status: ('A' for Active; 'I' for Inactive)
REMARK    1  A    between atoms: N_1  and  CA_2
REMARK    2  A    between atoms: CA_2  and  CB_3
REMARK    3  A    between atoms: CA_2  and  C_13
REMARK    4  A    between atoms: CB_3  and  CG_4
REMARK    5  A    between atoms: C_13  and  OXT_15
REMARK                            x       y       z     vdW  Elec       q    Type
REMARK                         _______ _______ _______ _____ _____    ______ ____
ROOT
ATOM      1  CG  TRP A   1      20.083   5.857   9.297  0.00  0.00    -0.020 A 
ATOM      2  CD1 TRP A   1      20.031   4.569   8.772  0.00  0.00    +0.087 A 
ATOM      3  NE1 TRP A   1      21.274   4.133   8.465  0.00  0.00    -0.360 N 
ATOM      4  CE2 TRP A   1      22.108   5.140   8.781  0.00  0.00    +0.047 A 
ATOM      5  CZ2 TRP A   1      23.493   5.170   8.625  0.00  0.00    +0.026 A 
ATOM      6  CH2 TRP A   1      24.173   6.342   9.005  0.00  0.00    +0.002 A 
ATOM      7  CZ3 TRP A   1      23.460   7.446   9.523  0.00  0.00    +0.001 A 
ATOM      8  CE3 TRP A   1      22.062   7.388   9.667  0.00  0.00    +0.010 A 
ATOM      9  CD2 TRP A   1      21.418   6.211   9.287  0.00  0.00    +0.003 A 
ATOM     10  HE1 TRP A   1      21.529   3.209   8.053  0.00  0.00    +0.165 HD
ENDROOT
BRANCH   1  11
ATOM     11  CB  TRP A   1      18.912   6.712   9.691  0.00  0.00    +0.067 C 
BRANCH  11  12
ATOM     12  CA  TRP A   1      17.588   6.153   9.131  0.00  0.00    +0.165 C 
BRANCH  12  13
ATOM     13  N   TRP A   1      17.026   7.051   8.120  0.00  0.00    -0.318 NA
ATOM     14  H1  TRP A   1      15.997   6.876   8.054  0.00  0.00    +0.119 HD
ATOM     15  H2  TRP A   1      17.438   6.826   7.184  0.00  0.00    +0.119 HD
ENDBRANCH  12  13
BRANCH  12  16
ATOM     16  C   TRP A   1      16.582   5.934  10.227  0.00  0.00    +0.322 C 
ATOM     17  O   TRP A   1      16.960   5.793  11.421  0.00  0.00    -0.249 OA
BRANCH  16  18
ATOM     18  OXT TRP A   1      15.228   5.855   9.916  0.00  0.00    -0.479 OA
ATOM     19  HXT TRP A   1      14.894   6.088   8.988  0.00  0.00    +0.295 HD
ENDBRANCH  16  18
ENDBRANCH  12  16
ENDBRANCH  11  12
ENDBRANCH   1  11
TORSDOF 5
ENDMDL
MODEL 5
REMARK VINA RESULT:      -5.3     18.017     19.152
REMARK  Name = peptide_4_KKWPKYCFCL
REMARK  5 active torsions:
REMARK  status: ('A' for Active; 'I' for Inactive)
REMARK    1  A    between atoms: N_1  and  CA_2
REMARK    2  A    between atoms: CA_2  and  CB_3
REMARK    3  A    between atoms: CA_2  and  C_13
REMARK    4  A    between atoms: CB_3  and  CG_4
REMARK    5  A    between atoms: C_13  and  OXT_15
REMARK                            x       y       z     vdW  Elec       q    Type
REMARK                         _______ _______ _______ _____ _____    ______ ____
ROOT
ATOM      1  CG  TRP A   1       8.424   7.861  25.265  0.00  0.00    -0.020 A 
ATOM      2  CD1 TRP A   1       9.721   7.983  24.775  0.00  0.00    +0.087 A 
ATOM      3  NE1 TRP A   1      10.456   6.897  25.109  0.00  0.00    -0.360 N 
ATOM      4  CE2 TRP A   1       9.637   6.098  25.815  0.00  0.00    +0.047 A 
ATOM      5  CZ2 TRP A   1       9.948   4.867  26.392  0.00  0.00    +0.026 A 
ATOM      6  CH2 TRP A   1       8.937   4.203  27.111  0.00  0.00    +0.002 A 
ATOM      7  CZ3 TRP A   1       7.653   4.779  27.237  0.00  0.00    +0.001 A 
ATOM      8  CE3 TRP A   1       7.369   6.023  26.646  0.00  0.00    +0.010 A 
ATOM      9  CD2 TRP A   1       8.390   6.654  25.936  0.00  0.00    +0.003 A 
ATOM     10  HE1 TRP A   1      11.459   6.726  24.877  0.00  0.00    +0.165 HD
ENDROOT
BRANCH   1  11
ATOM     11  CB  TRP A   1       7.330   8.886  25.167  0.00  0.00    +0.067 C 
BRANCH  11  12
ATOM     12  CA  TRP A   1       7.011   9.237  23.700  0.00  0.00    +0.165 C 
BRANCH  12  13
ATOM     13  N   TRP A   1       6.912  10.687  23.518  0.00  0.00    -0.318 NA
ATOM     14  H1  TRP A   1       7.724  11.006  22.940  0.00  0.00    +0.119 HD
ATOM     15  H2  TRP A   1       6.988  11.162  24.447  0.00  0.00    +0.119 HD
ENDBRANCH  12  13
BRANCH  12  16
ATOM     16  C   TRP A   1       5.735   8.582  23.248  0.00  0.00    +0.322 C 
ATOM     17  O   TRP A   1       4.813   9.270  22.731  0.00  0.00    -0.249 OA
BRANCH  16  18
ATOM     18  OXT TRP A   1       5.559   7.214  23.430  0.00  0.00    -0.479 OA
ATOM     19  HXT TRP A   1       4.838   6.711  22.925  0.00  0.00    +0.295 HD
ENDBRANCH  16  18
ENDBRANCH  12  16
ENDBRANCH  11  12
ENDBRANCH   1  11
TORSDOF 5
ENDMDL
MODEL 6
REMARK VINA RESULT:      -5.3     34.366     35.635
REMARK  Name = peptide_4_KKWPKYCFCL
REMARK  5 active torsions:
REMARK  status: ('A' for Active; 'I' for Inactive)
REMARK    1  A    between atoms: N_1  and  CA_2
REMARK    2  A    between atoms: CA_2  and  CB_3
REMARK    3  A    between atoms: CA_2  and  C_13
REMARK    4  A    between atoms: CB_3  and  CG_4
REMARK    5  A    between atoms: C_13  and  OXT_15
REMARK                            x       y       z     vdW  Elec       q    Type
REMARK                         _______ _______ _______ _____ _____    ______ ____
ROOT
ATOM      1  CG  TRP A   1      12.180  -4.005  42.261  0.00  0.00    -0.020 A 
ATOM      2  CD1 TRP A   1      11.183  -3.067  42.013  0.00  0.00    +0.087 A 
ATOM      3  NE1 TRP A   1       9.963  -3.602  42.248  0.00  0.00    -0.360 N 
ATOM      4  CE2 TRP A   1      10.182  -4.872  42.630  0.00  0.00    +0.047 A 
ATOM      5  CZ2 TRP A   1       9.226  -5.832  42.962  0.00  0.00    +0.026 A 
ATOM      6  CH2 TRP A   1       9.679  -7.116  43.317  0.00  0.00    +0.002 A 
ATOM      7  CZ3 TRP A   1      11.060  -7.409  43.330  0.00  0.00    +0.001 A 
ATOM      8  CE3 TRP A   1      12.002  -6.421  42.988  0.00  0.00    +0.010 A 
ATOM      9  CD2 TRP A   1      11.523  -5.157  42.646  0.00  0.00    +0.003 A 
ATOM     10  HE1 TRP A   1       9.040  -3.126  42.138  0.00  0.00    +0.165 HD
ENDROOT
BRANCH   1  11
ATOM     11  CB  TRP A   1      13.656  -3.820  42.049  0.00  0.00    +0.067 C 
BRANCH  11  12
ATOM     12  CA  TRP A   1      14.241  -2.770  43.015  0.00  0.00    +0.165 C 
BRANCH  12  13
ATOM     13  N   TRP A   1      15.204  -1.906  42.329  0.00  0.00    -0.318 NA
ATOM     14  H1  TRP A   1      14.697  -1.068  41.961  0.00  0.00    +0.119 HD
ATOM     15  H2  TRP A   1      15.604  -2.412  41.505  0.00  0.00    +0.119 HD
ENDBRANCH  12  13
BRANCH  12  16
ATOM     16  C   TRP A   1      14.902  -3.425  44.196  0.00  0.00    +0.322 C 
ATOM     17  O   TRP A   1      15.005  -4.680  44.256  0.00  0.00    -0.249 OA
BRANCH  16  18
ATOM     18  OXT TRP A   1      15.374  -2.641  45.245  0.00  0.00    -0.479 OA
ATOM     19  HXT TRP A   1      16.046  -1.901  45.079  0.00  0.00    +0.295 HD
ENDBRANCH  16  18
ENDBRANCH  12  16
ENDBRANCH  11  12
ENDBRANCH   1  11
TORSDOF 5
ENDMDL
MODEL 7
REMARK VINA RESULT:      -5.2     33.572     35.069
REMARK  Name = peptide_4_KKWPKYCFCL
REMARK  5 active torsions:
REMARK  status: ('A' for Active; 'I' for Inactive)
REMARK    1  A    between atoms: N_1  and  CA_2
REMARK    2  A    between atoms: CA_2  and  CB_3
REMARK    3  A    between atoms: CA_2  and  C_13
REMARK    4  A    between atoms: CB_3  and  CG_4
REMARK    5  A    between atoms: C_13  and  OXT_15
REMARK                            x       y       z     vdW  Elec       q    Type
REMARK                         _______ _______ _______ _____ _____    ______ ____
ROOT
ATOM      1  CG  TRP A   1      12.012  -5.083  42.533  0.00  0.00    -0.020 A 
ATOM      2  CD1 TRP A   1      12.631  -6.162  43.155  0.00  0.00    +0.087 A 
ATOM      3  NE1 TRP A   1      13.940  -6.215  42.817  0.00  0.00    -0.360 N 
ATOM      4  CE2 TRP A   1      14.148  -5.185  41.978  0.00  0.00    +0.047 A 
ATOM      5  CZ2 TRP A   1      15.341  -4.837  41.346  0.00  0.00    +0.026 A 
ATOM      6  CH2 TRP A   1      15.330  -3.724  40.485  0.00  0.00    +0.002 A 
ATOM      7  CZ3 TRP A   1      14.139  -2.994  40.276  0.00  0.00    +0.001 A 
ATOM      8  CE3 TRP A   1      12.949  -3.369  40.925  0.00  0.00    +0.010 A 
ATOM      9  CD2 TRP A   1      12.993  -4.474  41.776  0.00  0.00    +0.003 A 
ATOM     10  HE1 TRP A   1      14.640  -6.922  43.133  0.00  0.00    +0.165 HD
ENDROOT
BRANCH   1  11
ATOM     11  CB  TRP A   1      10.553  -4.728  42.597  0.00  0.00    +0.067 C 
BRANCH  11  12
ATOM     12  CA  TRP A   1       9.682  -5.964  42.897  0.00  0.00    +0.165 C 
BRANCH  12  13
ATOM     13  N   TRP A   1       8.774  -6.249  41.784  0.00  0.00    -0.318 NA
ATOM     14  H1  TRP A   1       8.777  -7.281  41.608  0.00  0.00    +0.119 HD
ATOM     15  H2  TRP A   1       9.130  -5.787  40.915  0.00  0.00    +0.119 HD
ENDBRANCH  12  13
BRANCH  12  16
ATOM     16  C   TRP A   1       8.888  -5.777  44.161  0.00  0.00    +0.322 C 
ATOM     17  O   TRP A   1       8.565  -6.772  44.865  0.00  0.00    -0.249 OA
BRANCH  16  18
ATOM     18  OXT TRP A   1       8.480  -4.501  44.538  0.00  0.00    -0.479 OA
ATOM     19  HXT TRP A   1       7.513  -4.214  44.441  0.00  0.00    +0.295 HD
ENDBRANCH  16  18
ENDBRANCH  12  16
ENDBRANCH  11  12
ENDBRANCH   1  11
TORSDOF 5
ENDMDL
MODEL 8
REMARK VINA RESULT:      -5.2     18.549     20.019
REMARK  Name = peptide_4_KKWPKYCFCL
REMARK  5 active torsions:
REMARK  status: ('A' for Active; 'I' for Inactive)
REMARK    1  A    between atoms: N_1  and  CA_2
REMARK    2  A    between atoms: CA_2  and  CB_3
REMARK    3  A    between atoms: CA_2  and  C_13
REMARK    4  A    between atoms: CB_3  and  CG_4
REMARK    5  A    between atoms: C_13  and  OXT_15
REMARK                            x       y       z     vdW  Elec       q    Type
REMARK                         _______ _______ _______ _____ _____    ______ ____
ROOT
ATOM      1  CG  TRP A   1       8.426   8.049  25.242  0.00  0.00    -0.020 A 
ATOM      2  CD1 TRP A   1       9.772   8.314  25.007  0.00  0.00    +0.087 A 
ATOM      3  NE1 TRP A   1      10.539   7.299  25.466  0.00  0.00    -0.360 N 
ATOM      4  CE2 TRP A   1       9.690   6.403  26.000  0.00  0.00    +0.047 A 
ATOM      5  CZ2 TRP A   1      10.014   5.195  26.617  0.00  0.00    +0.026 A 
ATOM      6  CH2 TRP A   1       8.960   4.415  27.127  0.00  0.00    +0.002 A 
ATOM      7  CZ3 TRP A   1       7.623   4.855  27.013  0.00  0.00    +0.001 A 
ATOM      8  CE3 TRP A   1       7.327   6.079  26.387  0.00  0.00    +0.010 A 
ATOM      9  CD2 TRP A   1       8.392   6.828  25.886  0.00  0.00    +0.003 A 
ATOM     10  HE1 TRP A   1      11.581   7.235  25.426  0.00  0.00    +0.165 HD
ENDROOT
BRANCH   1  11
ATOM     11  CB  TRP A   1       7.268   8.961  24.947  0.00  0.00    +0.067 C 
BRANCH  11  12
ATOM     12  CA  TRP A   1       6.876   9.798  26.181  0.00  0.00    +0.165 C 
BRANCH  12  13
ATOM     13  N   TRP A   1       7.979   9.863  27.142  0.00  0.00    -0.318 NA
ATOM     14  H1  TRP A   1       8.572  10.694  26.913  0.00  0.00    +0.119 HD
ATOM     15  H2  TRP A   1       8.583   9.014  27.040  0.00  0.00    +0.119 HD
ENDBRANCH  12  13
BRANCH  12  16
ATOM     16  C   TRP A   1       5.653   9.238  26.852  0.00  0.00    +0.322 C 
ATOM     17  O   TRP A   1       5.482   9.384  28.093  0.00  0.00    -0.249 OA
BRANCH  16  18
ATOM     18  OXT TRP A   1       4.718   8.528  26.104  0.00  0.00    -0.479 OA
ATOM     19  HXT TRP A   1       4.903   8.284  25.138  0.00  0.00    +0.295 HD
ENDBRANCH  16  18
ENDBRANCH  12  16
ENDBRANCH  11  12
ENDBRANCH   1  11
TORSDOF 5
ENDMDL
MODEL 9
REMARK VINA RESULT:      -5.0     21.581     23.058
REMARK  Name = peptide_4_KKWPKYCFCL
REMARK  5 active torsions:
REMARK  status: ('A' for Active; 'I' for Inactive)
REMARK    1  A    between atoms: N_1  and  CA_2
REMARK    2  A    between atoms: CA_2  and  CB_3
REMARK    3  A    between atoms: CA_2  and  C_13
REMARK    4  A    between atoms: CB_3  and  CG_4
REMARK    5  A    between atoms: C_13  and  OXT_15
REMARK                            x       y       z     vdW  Elec       q    Type
REMARK                         _______ _______ _______ _____ _____    ______ ____
ROOT
ATOM      1  CG  TRP A   1       4.564  -2.007  24.705  0.00  0.00    -0.020 A 
ATOM      2  CD1 TRP A   1       5.637  -1.130  24.572  0.00  0.00    +0.087 A 
ATOM      3  NE1 TRP A   1       5.206   0.083  24.154  0.00  0.00    -0.360 N 
ATOM      4  CE2 TRP A   1       3.874  -0.026  24.012  0.00  0.00    +0.047 A 
ATOM      5  CZ2 TRP A   1       2.987   0.961  23.583  0.00  0.00    +0.026 A 
ATOM      6  CH2 TRP A   1       1.624   0.624  23.487  0.00  0.00    +0.002 A 
ATOM      7  CZ3 TRP A   1       1.184  -0.677  23.816  0.00  0.00    +0.001 A 
ATOM      8  CE3 TRP A   1       2.102  -1.653  24.244  0.00  0.00    +0.010 A 
ATOM      9  CD2 TRP A   1       3.445  -1.287  24.334  0.00  0.00    +0.003 A 
ATOM     10  HE1 TRP A   1       5.795   0.924  23.967  0.00  0.00    +0.165 HD
ENDROOT
BRANCH   1  11
ATOM     11  CB  TRP A   1       4.637  -3.461  25.075  0.00  0.00    +0.067 C 
BRANCH  11  12
ATOM     12  CA  TRP A   1       5.622  -3.702  26.237  0.00  0.00    +0.165 C 
BRANCH  12  13
ATOM     13  N   TRP A   1       6.483  -4.855  25.963  0.00  0.00    -0.318 NA
ATOM     14  H1  TRP A   1       5.888  -5.715  25.932  0.00  0.00    +0.119 HD
ATOM     15  H2  TRP A   1       7.163  -4.978  26.749  0.00  0.00    +0.119 HD
ENDBRANCH  12  13
BRANCH  12  16
ATOM     16  C   TRP A   1       4.892  -3.914  27.535  0.00  0.00    +0.322 C 
ATOM     17  O   TRP A   1       5.447  -4.527  28.486  0.00  0.00    -0.249 OA
BRANCH  16  18
ATOM     18  OXT TRP A   1       3.585  -3.456  27.675  0.00  0.00    -0.479 OA
ATOM     19  HXT TRP A   1       3.003  -3.291  26.862  0.00  0.00    +0.295 HD
ENDBRANCH  16  18
ENDBRANCH  12  16
ENDBRANCH  11  12
ENDBRANCH   1  11
TORSDOF 5
ENDMDL
