MODEL 1
REMARK VINA RESULT:      -4.9      0.000      0.000
REMARK  Name = peptide_6_GHNPPQIKYL
REMARK  5 active torsions:
REMARK  status: ('A' for Active; 'I' for Inactive)
REMARK    1  A    between atoms: N_1  and  CA_2
REMARK    2  A    between atoms: CA_2  and  CB_3
REMARK    3  A    between atoms: CA_2  and  C_10
REMARK    4  A    between atoms: CB_3  and  CG_4
REMARK    5  A    between atoms: C_10  and  OXT_12
REMARK                            x       y       z     vdW  Elec       q    Type
REMARK                         _______ _______ _______ _____ _____    ______ ____
ROOT
ATOM      1  CA  PHE A   1      -6.633  -0.429  47.779  0.00  0.00    +0.165 C 
ENDROOT
BRANCH   1   2
ATOM      2  N   PHE A   1      -5.435  -1.006  47.163  0.00  0.00    -0.318 NA
ATOM      3  H1  PHE A   1      -5.518  -0.919  46.124  0.00  0.00    +0.119 HD
ATOM      4  H2  PHE A   1      -5.385  -2.027  47.386  0.00  0.00    +0.119 HD
ENDBRANCH   1   2
BRANCH   1   5
ATOM      5  C   PHE A   1      -6.225   0.473  48.911  0.00  0.00    +0.322 C 
ATOM      6  O   PHE A   1      -5.373   0.082  49.753  0.00  0.00    -0.249 OA
BRANCH   5   7
ATOM      7  OXT PHE A   1      -6.775   1.747  49.021  0.00  0.00    -0.479 OA
ATOM      8  HXT PHE A   1      -6.232   2.569  48.785  0.00  0.00    +0.295 HD
ENDBRANCH   5   7
ENDBRANCH   1   5
BRANCH   1   9
ATOM      9  CB  PHE A   1      -7.591  -1.537  48.264  0.00  0.00    +0.065 C 
BRANCH   9  10
ATOM     10  CG  PHE A   1      -9.020  -1.245  47.880  0.00  0.00    -0.045 A 
ATOM     11  CD1 PHE A   1      -9.734  -2.147  47.073  0.00  0.00    +0.003 A 
ATOM     12  CE1 PHE A   1     -11.049  -1.862  46.692  0.00  0.00    +0.000 A 
ATOM     13  CZ  PHE A   1     -11.657  -0.675  47.108  0.00  0.00    +0.000 A 
ATOM     14  CE2 PHE A   1     -10.951   0.233  47.902  0.00  0.00    +0.000 A 
ATOM     15  CD2 PHE A   1      -9.636  -0.048  48.285  0.00  0.00    +0.003 A 
ENDBRANCH   9  10
ENDBRANCH   1   9
TORSDOF 5
ENDMDL
MODEL 2
REMARK VINA RESULT:      -4.9     24.702     25.725
REMARK  Name = peptide_6_GHNPPQIKYL
REMARK  5 active torsions:
REMARK  status: ('A' for Active; 'I' for Inactive)
REMARK    1  A    between atoms: N_1  and  CA_2
REMARK    2  A    between atoms: CA_2  and  CB_3
REMARK    3  A    between atoms: CA_2  and  C_10
REMARK    4  A    between atoms: CB_3  and  CG_4
REMARK    5  A    between atoms: C_10  and  OXT_12
REMARK                            x       y       z     vdW  Elec       q    Type
REMARK                         _______ _______ _______ _____ _____    ______ ____
ROOT
ATOM      1  CA  PHE A   1       6.942  -2.829  27.970  0.00  0.00    +0.165 C 
ENDROOT
BRANCH   1   2
ATOM      2  N   PHE A   1       8.376  -3.113  27.870  0.00  0.00    -0.318 NA
ATOM      3  H1  PHE A   1       8.890  -2.462  28.508  0.00  0.00    +0.119 HD
ATOM      4  H2  PHE A   1       8.704  -2.918  26.896  0.00  0.00    +0.119 HD
ENDBRANCH   1   2
BRANCH   1   5
ATOM      5  C   PHE A   1       6.484  -3.073  29.381  0.00  0.00    +0.322 C 
ATOM      6  O   PHE A   1       5.897  -4.148  29.678  0.00  0.00    -0.249 OA
BRANCH   5   7
ATOM      7  OXT PHE A   1       6.721  -2.118  30.366  0.00  0.00    -0.479 OA
ATOM      8  HXT PHE A   1       6.414  -2.269  31.320  0.00  0.00    +0.295 HD
ENDBRANCH   5   7
ENDBRANCH   1   5
BRANCH   1   9
ATOM      9  CB  PHE A   1       6.140  -3.684  26.966  0.00  0.00    +0.065 C 
BRANCH   9  10
ATOM     10  CG  PHE A   1       5.528  -2.838  25.878  0.00  0.00    -0.045 A 
ATOM     11  CD1 PHE A   1       5.935  -1.504  25.706  0.00  0.00    +0.003 A 
ATOM     12  CE1 PHE A   1       5.347  -0.710  24.717  0.00  0.00    +0.000 A 
ATOM     13  CZ  PHE A   1       4.344  -1.238  23.899  0.00  0.00    +0.000 A 
ATOM     14  CE2 PHE A   1       3.926  -2.560  24.071  0.00  0.00    +0.000 A 
ATOM     15  CD2 PHE A   1       4.512  -3.358  25.058  0.00  0.00    +0.003 A 
ENDBRANCH   9  10
ENDBRANCH   1   9
TORSDOF 5
ENDMDL
MODEL 3
REMARK VINA RESULT:      -4.9      3.130      4.822
REMARK  Name = peptide_6_GHNPPQIKYL
REMARK  5 active torsions:
REMARK  status: ('A' for Active; 'I' for Inactive)
REMARK    1  A    between atoms: N_1  and  CA_2
REMARK    2  A    between atoms: CA_2  and  CB_3
REMARK    3  A    between atoms: CA_2  and  C_10
REMARK    4  A    between atoms: CB_3  and  CG_4
REMARK    5  A    between atoms: C_10  and  OXT_12
REMARK                            x       y       z     vdW  Elec       q    Type
REMARK                         _______ _______ _______ _____ _____    ______ ____
ROOT
ATOM      1  CA  PHE A   1     -10.289  -0.834  47.242  0.00  0.00    +0.165 C 
ENDROOT
BRANCH   1   2
ATOM      2  N   PHE A   1     -11.005  -0.627  45.981  0.00  0.00    -0.318 NA
ATOM      3  H1  PHE A   1     -11.155   0.399  45.846  0.00  0.00    +0.119 HD
ATOM      4  H2  PHE A   1     -11.950  -1.073  46.039  0.00  0.00    +0.119 HD
ENDBRANCH   1   2
BRANCH   1   5
ATOM      5  C   PHE A   1     -11.255  -1.309  48.291  0.00  0.00    +0.322 C 
ATOM      6  O   PHE A   1     -12.485  -1.389  48.027  0.00  0.00    -0.249 OA
BRANCH   5   7
ATOM      7  OXT PHE A   1     -10.791  -1.677  49.551  0.00  0.00    -0.479 OA
ATOM      8  HXT PHE A   1     -10.752  -2.652  49.825  0.00  0.00    +0.295 HD
ENDBRANCH   5   7
ENDBRANCH   1   5
BRANCH   1   9
ATOM      9  CB  PHE A   1      -9.571   0.458  47.686  0.00  0.00    +0.065 C 
BRANCH   9  10
ATOM     10  CG  PHE A   1      -8.094   0.233  47.892  0.00  0.00    -0.045 A 
ATOM     11  CD1 PHE A   1      -7.584  -1.073  47.981  0.00  0.00    +0.003 A 
ATOM     12  CE1 PHE A   1      -6.219  -1.282  48.201  0.00  0.00    +0.000 A 
ATOM     13  CZ  PHE A   1      -5.357  -0.191  48.341  0.00  0.00    +0.000 A 
ATOM     14  CE2 PHE A   1      -5.858   1.111  48.264  0.00  0.00    +0.000 A 
ATOM     15  CD2 PHE A   1      -7.222   1.324  48.043  0.00  0.00    +0.003 A 
ENDBRANCH   9  10
ENDBRANCH   1   9
TORSDOF 5
ENDMDL
MODEL 4
REMARK VINA RESULT:      -4.9     46.193     47.269
REMARK  Name = peptide_6_GHNPPQIKYL
REMARK  5 active torsions:
REMARK  status: ('A' for Active; 'I' for Inactive)
REMARK    1  A    between atoms: N_1  and  CA_2
REMARK    2  A    between atoms: CA_2  and  CB_3
REMARK    3  A    between atoms: CA_2  and  C_10
REMARK    4  A    between atoms: CB_3  and  CG_4
REMARK    5  A    between atoms: C_10  and  OXT_12
REMARK                            x       y       z     vdW  Elec       q    Type
REMARK                         _______ _______ _______ _____ _____    ______ ____
ROOT
ATOM      1  CA  PHE A   1      19.369   4.734   9.056  0.00  0.00    +0.165 C 
ENDROOT
BRANCH   1   2
ATOM      2  N   PHE A   1      18.837   3.848  10.094  0.00  0.00    -0.318 NA
ATOM      3  H1  PHE A   1      17.879   4.176  10.355  0.00  0.00    +0.119 HD
ATOM      4  H2  PHE A   1      19.433   3.918  10.952  0.00  0.00    +0.119 HD
ENDBRANCH   1   2
BRANCH   1   5
ATOM      5  C   PHE A   1      20.757   4.291   8.687  0.00  0.00    +0.322 C 
ATOM      6  O   PHE A   1      21.558   5.102   8.149  0.00  0.00    -0.249 OA
BRANCH   5   7
ATOM      7  OXT PHE A   1      21.167   2.987   8.954  0.00  0.00    -0.479 OA
ATOM      8  HXT PHE A   1      21.153   2.280   8.228  0.00  0.00    +0.295 HD
ENDBRANCH   5   7
ENDBRANCH   1   5
BRANCH   1   9
ATOM      9  CB  PHE A   1      19.358   6.204   9.526  0.00  0.00    +0.065 C 
BRANCH   9  10
ATOM     10  CG  PHE A   1      17.969   6.659   9.898  0.00  0.00    -0.045 A 
ATOM     11  CD1 PHE A   1      16.930   6.605   8.953  0.00  0.00    +0.003 A 
ATOM     12  CE1 PHE A   1      15.649   7.055   9.288  0.00  0.00    +0.000 A 
ATOM     13  CZ  PHE A   1      15.398   7.569  10.563  0.00  0.00    +0.000 A 
ATOM     14  CE2 PHE A   1      16.428   7.637  11.505  0.00  0.00    +0.000 A 
ATOM     15  CD2 PHE A   1      17.710   7.187  11.175  0.00  0.00    +0.003 A 
ENDBRANCH   9  10
ENDBRANCH   1   9
TORSDOF 5
ENDMDL
MODEL 5
REMARK VINA RESULT:      -4.8     46.887     48.138
REMARK  Name = peptide_6_GHNPPQIKYL
REMARK  5 active torsions:
REMARK  status: ('A' for Active; 'I' for Inactive)
REMARK    1  A    between atoms: N_1  and  CA_2
REMARK    2  A    between atoms: CA_2  and  CB_3
REMARK    3  A    between atoms: CA_2  and  C_10
REMARK    4  A    between atoms: CB_3  and  CG_4
REMARK    5  A    between atoms: C_10  and  OXT_12
REMARK                            x       y       z     vdW  Elec       q    Type
REMARK                         _______ _______ _______ _____ _____    ______ ____
ROOT
ATOM      1  CA  PHE A   1      17.838   6.268   9.011  0.00  0.00    +0.165 C 
ENDROOT
BRANCH   1   2
ATOM      2  N   PHE A   1      17.159   7.094   8.010  0.00  0.00    -0.318 NA
ATOM      3  H1  PHE A   1      17.263   6.638   7.074  0.00  0.00    +0.119 HD
ATOM      4  H2  PHE A   1      17.625   8.029   7.953  0.00  0.00    +0.119 HD
ENDBRANCH   1   2
BRANCH   1   5
ATOM      5  C   PHE A   1      16.872   5.924  10.110  0.00  0.00    +0.322 C 
ATOM      6  O   PHE A   1      15.703   5.547   9.828  0.00  0.00    -0.249 OA
BRANCH   5   7
ATOM      7  OXT PHE A   1      17.272   6.004  11.441  0.00  0.00    -0.479 OA
ATOM      8  HXT PHE A   1      16.676   6.437  12.137  0.00  0.00    +0.295 HD
ENDBRANCH   5   7
ENDBRANCH   1   5
BRANCH   1   9
ATOM      9  CB  PHE A   1      19.084   6.989   9.566  0.00  0.00    +0.065 C 
BRANCH   9  10
ATOM     10  CG  PHE A   1      20.334   6.165   9.381  0.00  0.00    -0.045 A 
ATOM     11  CD1 PHE A   1      20.242   4.778   9.177  0.00  0.00    +0.003 A 
ATOM     12  CE1 PHE A   1      21.401   4.008   9.035  0.00  0.00    +0.000 A 
ATOM     13  CZ  PHE A   1      22.658   4.616   9.104  0.00  0.00    +0.000 A 
ATOM     14  CE2 PHE A   1      22.758   5.994   9.317  0.00  0.00    +0.000 A 
ATOM     15  CD2 PHE A   1      21.602   6.766   9.459  0.00  0.00    +0.003 A 
ENDBRANCH   9  10
ENDBRANCH   1   9
TORSDOF 5
ENDMDL
MODEL 6
REMARK VINA RESULT:      -4.7      3.063      4.275
REMARK  Name = peptide_6_GHNPPQIKYL
REMARK  5 active torsions:
REMARK  status: ('A' for Active; 'I' for Inactive)
REMARK    1  A    between atoms: N_1  and  CA_2
REMARK    2  A    between atoms: CA_2  and  CB_3
REMARK    3  A    between atoms: CA_2  and  C_10
REMARK    4  A    between atoms: CB_3  and  CG_4
REMARK    5  A    between atoms: C_10  and  OXT_12
REMARK                            x       y       z     vdW  Elec       q    Type
REMARK                         _______ _______ _______ _____ _____    ______ ____
ROOT
ATOM      1  CA  PHE A   1     -10.406  -0.686  47.794  0.00  0.00    +0.165 C 
ENDROOT
BRANCH   1   2
ATOM      2  N   PHE A   1     -10.907  -1.137  49.094  0.00  0.00    -0.318 NA
ATOM      3  H1  PHE A   1     -10.146  -1.020  49.803  0.00  0.00    +0.119 HD
ATOM      4  H2  PHE A   1     -11.133  -2.157  49.047  0.00  0.00    +0.119 HD
ENDBRANCH   1   2
BRANCH   1   5
ATOM      5  C   PHE A   1     -10.128   0.790  47.852  0.00  0.00    +0.322 C 
ATOM      6  O   PHE A   1     -10.786   1.526  48.635  0.00  0.00    -0.249 OA
BRANCH   5   7
ATOM      7  OXT PHE A   1      -9.131   1.344  47.054  0.00  0.00    -0.479 OA
ATOM      8  HXT PHE A   1      -8.787   2.281  47.228  0.00  0.00    +0.295 HD
ENDBRANCH   5   7
ENDBRANCH   1   5
BRANCH   1   9
ATOM      9  CB  PHE A   1     -11.410  -1.022  46.671  0.00  0.00    +0.065 C 
BRANCH   9  10
ATOM     10  CG  PHE A   1     -10.889  -2.106  45.762  0.00  0.00    -0.045 A 
ATOM     11  CD1 PHE A   1     -10.066  -3.123  46.275  0.00  0.00    +0.003 A 
ATOM     12  CE1 PHE A   1      -9.557  -4.112  45.427  0.00  0.00    +0.000 A 
ATOM     13  CZ  PHE A   1      -9.859  -4.089  44.063  0.00  0.00    +0.000 A 
ATOM     14  CE2 PHE A   1     -10.667  -3.074  43.543  0.00  0.00    +0.000 A 
ATOM     15  CD2 PHE A   1     -11.179  -2.084  44.387  0.00  0.00    +0.003 A 
ENDBRANCH   9  10
ENDBRANCH   1   9
TORSDOF 5
ENDMDL
MODEL 7
REMARK VINA RESULT:      -4.7      3.998      5.056
REMARK  Name = peptide_6_GHNPPQIKYL
REMARK  5 active torsions:
REMARK  status: ('A' for Active; 'I' for Inactive)
REMARK    1  A    between atoms: N_1  and  CA_2
REMARK    2  A    between atoms: CA_2  and  CB_3
REMARK    3  A    between atoms: CA_2  and  C_10
REMARK    4  A    between atoms: CB_3  and  CG_4
REMARK    5  A    between atoms: C_10  and  OXT_12
REMARK                            x       y       z     vdW  Elec       q    Type
REMARK                         _______ _______ _______ _____ _____    ______ ____
ROOT
ATOM      1  CA  PHE A   1     -12.089  -2.221  46.448  0.00  0.00    +0.165 C 
ENDROOT
BRANCH   1   2
ATOM      2  N   PHE A   1     -13.016  -3.355  46.397  0.00  0.00    -0.318 NA
ATOM      3  H1  PHE A   1     -12.469  -4.239  46.513  0.00  0.00    +0.119 HD
ATOM      4  H2  PHE A   1     -13.471  -3.391  45.456  0.00  0.00    +0.119 HD
ENDBRANCH   1   2
BRANCH   1   5
ATOM      5  C   PHE A   1     -11.328  -2.143  45.154  0.00  0.00    +0.322 C 
ATOM      6  O   PHE A   1     -10.511  -3.051  44.845  0.00  0.00    -0.249 OA
BRANCH   5   7
ATOM      7  OXT PHE A   1     -11.537  -1.074  44.286  0.00  0.00    -0.479 OA
ATOM      8  HXT PHE A   1     -12.009  -0.235  44.600  0.00  0.00    +0.295 HD
ENDBRANCH   5   7
ENDBRANCH   1   5
BRANCH   1   9
ATOM      9  CB  PHE A   1     -11.132  -2.346  47.653  0.00  0.00    +0.065 C 
BRANCH   9  10
ATOM     10  CG  PHE A   1     -10.236  -1.139  47.780  0.00  0.00    -0.045 A 
ATOM     11  CD1 PHE A   1      -8.841  -1.297  47.831  0.00  0.00    +0.003 A 
ATOM     12  CE1 PHE A   1      -8.011  -0.182  47.979  0.00  0.00    +0.000 A 
ATOM     13  CZ  PHE A   1      -8.567   1.096  48.084  0.00  0.00    +0.000 A 
ATOM     14  CE2 PHE A   1      -9.954   1.261  48.045  0.00  0.00    +0.000 A 
ATOM     15  CD2 PHE A   1     -10.787   0.148  47.897  0.00  0.00    +0.003 A 
ENDBRANCH   9  10
ENDBRANCH   1   9
TORSDOF 5
ENDMDL
MODEL 8
REMARK VINA RESULT:      -4.6     45.824     47.061
REMARK  Name = peptide_6_GHNPPQIKYL
REMARK  5 active torsions:
REMARK  status: ('A' for Active; 'I' for Inactive)
REMARK    1  A    between atoms: N_1  and  CA_2
REMARK    2  A    between atoms: CA_2  and  CB_3
REMARK    3  A    between atoms: CA_2  and  C_10
REMARK    4  A    between atoms: CB_3  and  CG_4
REMARK    5  A    between atoms: C_10  and  OXT_12
REMARK                            x       y       z     vdW  Elec       q    Type
REMARK                         _______ _______ _______ _____ _____    ______ ____
ROOT
ATOM      1  CA  PHE A   1      16.819   6.625  10.873  0.00  0.00    +0.165 C 
ENDROOT
BRANCH   1   2
ATOM      2  N   PHE A   1      16.422   6.141  12.197  0.00  0.00    -0.318 NA
ATOM      3  H1  PHE A   1      15.703   5.391  12.077  0.00  0.00    +0.119 HD
ATOM      4  H2  PHE A   1      15.973   6.920  12.733  0.00  0.00    +0.119 HD
ENDBRANCH   1   2
BRANCH   1   5
ATOM      5  C   PHE A   1      15.715   7.470  10.300  0.00  0.00    +0.322 C 
ATOM      6  O   PHE A   1      15.036   8.217  11.054  0.00  0.00    -0.249 OA
BRANCH   5   7
ATOM      7  OXT PHE A   1      15.451   7.441   8.934  0.00  0.00    -0.479 OA
ATOM      8  HXT PHE A   1      14.909   8.175   8.494  0.00  0.00    +0.295 HD
ENDBRANCH   5   7
ENDBRANCH   1   5
BRANCH   1   9
ATOM      9  CB  PHE A   1      17.165   5.448   9.937  0.00  0.00    +0.065 C 
BRANCH   9  10
ATOM     10  CG  PHE A   1      18.631   5.431   9.581  0.00  0.00    -0.045 A 
ATOM     11  CD1 PHE A   1      19.345   6.636   9.472  0.00  0.00    +0.003 A 
ATOM     12  CE1 PHE A   1      20.697   6.623   9.112  0.00  0.00    +0.000 A 
ATOM     13  CZ  PHE A   1      21.341   5.410   8.854  0.00  0.00    +0.000 A 
ATOM     14  CE2 PHE A   1      20.635   4.208   8.951  0.00  0.00    +0.000 A 
ATOM     15  CD2 PHE A   1      19.284   4.217   9.310  0.00  0.00    +0.003 A 
ENDBRANCH   9  10
ENDBRANCH   1   9
TORSDOF 5
ENDMDL
MODEL 9
REMARK VINA RESULT:      -4.5     47.032     48.151
REMARK  Name = peptide_6_GHNPPQIKYL
REMARK  5 active torsions:
REMARK  status: ('A' for Active; 'I' for Inactive)
REMARK    1  A    between atoms: N_1  and  CA_2
REMARK    2  A    between atoms: CA_2  and  CB_3
REMARK    3  A    between atoms: CA_2  and  C_10
REMARK    4  A    between atoms: CB_3  and  CG_4
REMARK    5  A    between atoms: C_10  and  OXT_12
REMARK                            x       y       z     vdW  Elec       q    Type
REMARK                         _______ _______ _______ _____ _____    ______ ____
ROOT
ATOM      1  CA  PHE A   1      21.604   6.022   9.894  0.00  0.00    +0.165 C 
ENDROOT
BRANCH   1   2
ATOM      2  N   PHE A   1      22.772   6.813  10.287  0.00  0.00    -0.318 NA
ATOM      3  H1  PHE A   1      23.457   6.813   9.497  0.00  0.00    +0.119 HD
ATOM      4  H2  PHE A   1      23.242   6.359  11.105  0.00  0.00    +0.119 HD
ENDBRANCH   1   2
BRANCH   1   5
ATOM      5  C   PHE A   1      22.053   4.842   9.078  0.00  0.00    +0.322 C 
ATOM      6  O   PHE A   1      21.851   4.821   7.834  0.00  0.00    -0.249 OA
BRANCH   5   7
ATOM      7  OXT PHE A   1      22.708   3.778   9.692  0.00  0.00    -0.479 OA
ATOM      8  HXT PHE A   1      23.211   3.910  10.562  0.00  0.00    +0.295 HD
ENDBRANCH   5   7
ENDBRANCH   1   5
BRANCH   1   9
ATOM      9  CB  PHE A   1      20.590   6.887   9.115  0.00  0.00    +0.065 C 
BRANCH   9  10
ATOM     10  CG  PHE A   1      19.169   6.565   9.504  0.00  0.00    -0.045 A 
ATOM     11  CD1 PHE A   1      18.488   7.375  10.429  0.00  0.00    +0.003 A 
ATOM     12  CE1 PHE A   1      17.181   7.060  10.813  0.00  0.00    +0.000 A 
ATOM     13  CZ  PHE A   1      16.547   5.933  10.282  0.00  0.00    +0.000 A 
ATOM     14  CE2 PHE A   1      17.220   5.117   9.369  0.00  0.00    +0.000 A 
ATOM     15  CD2 PHE A   1      18.527   5.428   8.983  0.00  0.00    +0.003 A 
ENDBRANCH   9  10
ENDBRANCH   1   9
TORSDOF 5
ENDMDL
