MODEL 1
REMARK VINA RESULT:      -6.2      0.000      0.000
REMARK  Name = peptide_2_WKTMSPKIVL
REMARK  5 active torsions:
REMARK  status: ('A' for Active; 'I' for Inactive)
REMARK    1  A    between atoms: N_1  and  CA_2
REMARK    2  A    between atoms: CA_2  and  CB_3
REMARK    3  A    between atoms: CA_2  and  C_13
REMARK    4  A    between atoms: CB_3  and  CG_4
REMARK    5  A    between atoms: C_13  and  OXT_15
REMARK                            x       y       z     vdW  Elec       q    Type
REMARK                         _______ _______ _______ _____ _____    ______ ____
ROOT
ATOM      1  CG  TRP A   1      18.377   5.342   9.126  0.00  0.00    -0.020 A 
ATOM      2  CD1 TRP A   1      18.157   3.967   9.121  0.00  0.00    +0.087 A 
ATOM      3  NE1 TRP A   1      19.335   3.301   9.158  0.00  0.00    -0.360 N 
ATOM      4  CE2 TRP A   1      20.294   4.243   9.173  0.00  0.00    +0.047 A 
ATOM      5  CZ2 TRP A   1      21.674   4.044   9.192  0.00  0.00    +0.026 A 
ATOM      6  CH2 TRP A   1      22.503   5.181   9.185  0.00  0.00    +0.002 A 
ATOM      7  CZ3 TRP A   1      21.940   6.476   9.157  0.00  0.00    +0.001 A 
ATOM      8  CE3 TRP A   1      20.544   6.647   9.137  0.00  0.00    +0.010 A 
ATOM      9  CD2 TRP A   1      19.749   5.501   9.150  0.00  0.00    +0.003 A 
ATOM     10  HE1 TRP A   1      19.467   2.266   9.158  0.00  0.00    +0.165 HD
ENDROOT
BRANCH   1  11
ATOM     11  CB  TRP A   1      17.332   6.416   9.020  0.00  0.00    +0.067 C 
BRANCH  11  12
ATOM     12  CA  TRP A   1      16.203   6.213  10.051  0.00  0.00    +0.165 C 
BRANCH  12  13
ATOM     13  N   TRP A   1      15.017   6.991   9.689  0.00  0.00    -0.318 NA
ATOM     14  H1  TRP A   1      15.180   7.990   9.954  0.00  0.00    +0.119 HD
ATOM     15  H2  TRP A   1      14.195   6.654  10.243  0.00  0.00    +0.119 HD
ENDBRANCH  12  13
BRANCH  12  16
ATOM     16  C   TRP A   1      16.654   6.592  11.434  0.00  0.00    +0.322 C 
ATOM     17  O   TRP A   1      17.345   7.630  11.618  0.00  0.00    -0.249 OA
BRANCH  16  18
ATOM     18  OXT TRP A   1      16.331   5.775  12.514  0.00  0.00    -0.479 OA
ATOM     19  HXT TRP A   1      16.555   6.054  13.462  0.00  0.00    +0.295 HD
ENDBRANCH  16  18
ENDBRANCH  12  16
ENDBRANCH  11  12
ENDBRANCH   1  11
TORSDOF 5
ENDMDL
MODEL 2
REMARK VINA RESULT:      -6.2     46.109     47.438
REMARK  Name = peptide_2_WKTMSPKIVL
REMARK  5 active torsions:
REMARK  status: ('A' for Active; 'I' for Inactive)
REMARK    1  A    between atoms: N_1  and  CA_2
REMARK    2  A    between atoms: CA_2  and  CB_3
REMARK    3  A    between atoms: CA_2  and  C_13
REMARK    4  A    between atoms: CB_3  and  CG_4
REMARK    5  A    between atoms: C_13  and  OXT_15
REMARK                            x       y       z     vdW  Elec       q    Type
REMARK                         _______ _______ _______ _____ _____    ______ ____
ROOT
ATOM      1  CG  TRP A   1      -9.508  -0.159  47.925  0.00  0.00    -0.020 A 
ATOM      2  CD1 TRP A   1      -9.863   1.186  47.896  0.00  0.00    +0.087 A 
ATOM      3  NE1 TRP A   1      -8.760   1.967  47.953  0.00  0.00    -0.360 N 
ATOM      4  CE2 TRP A   1      -7.714   1.125  48.030  0.00  0.00    +0.047 A 
ATOM      5  CZ2 TRP A   1      -6.364   1.461  48.127  0.00  0.00    +0.026 A 
ATOM      6  CH2 TRP A   1      -5.430   0.413  48.217  0.00  0.00    +0.002 A 
ATOM      7  CZ3 TRP A   1      -5.861  -0.932  48.210  0.00  0.00    +0.001 A 
ATOM      8  CE3 TRP A   1      -7.229  -1.241  48.113  0.00  0.00    +0.010 A 
ATOM      9  CD2 TRP A   1      -8.131  -0.181  48.020  0.00  0.00    +0.003 A 
ATOM     10  HE1 TRP A   1      -8.732   3.010  47.953  0.00  0.00    +0.165 HD
ENDROOT
BRANCH   1  11
ATOM     11  CB  TRP A   1     -10.447  -1.333  47.952  0.00  0.00    +0.067 C 
BRANCH  11  12
ATOM     12  CA  TRP A   1     -11.734  -1.048  47.153  0.00  0.00    +0.165 C 
BRANCH  12  13
ATOM     13  N   TRP A   1     -12.913  -1.549  47.863  0.00  0.00    -0.318 NA
ATOM     14  H1  TRP A   1     -12.918  -2.593  47.806  0.00  0.00    +0.119 HD
ATOM     15  H2  TRP A   1     -13.780  -1.209  47.385  0.00  0.00    +0.119 HD
ENDBRANCH  12  13
BRANCH  12  16
ATOM     16  C   TRP A   1     -11.672  -1.663  45.782  0.00  0.00    +0.322 C 
ATOM     17  O   TRP A   1     -11.652  -2.916  45.645  0.00  0.00    -0.249 OA
BRANCH  16  18
ATOM     18  OXT TRP A   1     -11.604  -0.843  44.660  0.00  0.00    -0.479 OA
ATOM     19  HXT TRP A   1     -10.842  -0.186  44.542  0.00  0.00    +0.295 HD
ENDBRANCH  16  18
ENDBRANCH  12  16
ENDBRANCH  11  12
ENDBRANCH   1  11
TORSDOF 5
ENDMDL
MODEL 3
REMARK VINA RESULT:      -5.6      3.896      5.548
REMARK  Name = peptide_2_WKTMSPKIVL
REMARK  5 active torsions:
REMARK  status: ('A' for Active; 'I' for Inactive)
REMARK    1  A    between atoms: N_1  and  CA_2
REMARK    2  A    between atoms: CA_2  and  CB_3
REMARK    3  A    between atoms: CA_2  and  C_13
REMARK    4  A    between atoms: CB_3  and  CG_4
REMARK    5  A    between atoms: C_13  and  OXT_15
REMARK                            x       y       z     vdW  Elec       q    Type
REMARK                         _______ _______ _______ _____ _____    ______ ____
ROOT
ATOM      1  CG  TRP A   1      21.451   5.475   8.642  0.00  0.00    -0.020 A 
ATOM      2  CD1 TRP A   1      21.737   4.115   8.714  0.00  0.00    +0.087 A 
ATOM      3  NE1 TRP A   1      20.627   3.416   9.047  0.00  0.00    -0.360 N 
ATOM      4  CE2 TRP A   1      19.648   4.325   9.198  0.00  0.00    +0.047 A 
ATOM      5  CZ2 TRP A   1      18.323   4.087   9.559  0.00  0.00    +0.026 A 
ATOM      6  CH2 TRP A   1      17.464   5.195   9.679  0.00  0.00    +0.002 A 
ATOM      7  CZ3 TRP A   1      17.945   6.501   9.441  0.00  0.00    +0.001 A 
ATOM      8  CE3 TRP A   1      19.288   6.712   9.079  0.00  0.00    +0.010 A 
ATOM      9  CD2 TRP A   1      20.113   5.593   8.963  0.00  0.00    +0.003 A 
ATOM     10  HE1 TRP A   1      20.555   2.383   9.176  0.00  0.00    +0.165 HD
ENDROOT
BRANCH   1  11
ATOM     11  CB  TRP A   1      22.429   6.583   8.372  0.00  0.00    +0.067 C 
BRANCH  11  12
ATOM     12  CA  TRP A   1      23.424   6.757   9.537  0.00  0.00    +0.165 C 
BRANCH  12  13
ATOM     13  N   TRP A   1      22.854   7.597  10.592  0.00  0.00    -0.318 NA
ATOM     14  H1  TRP A   1      23.622   7.877  11.246  0.00  0.00    +0.119 HD
ATOM     15  H2  TRP A   1      22.163   7.041  11.147  0.00  0.00    +0.119 HD
ENDBRANCH  12  13
BRANCH  12  16
ATOM     16  C   TRP A   1      24.721   7.352   9.062  0.00  0.00    +0.322 C 
ATOM     17  O   TRP A   1      24.795   7.896   7.927  0.00  0.00    -0.249 OA
BRANCH  16  18
ATOM     18  OXT TRP A   1      25.853   7.275   9.868  0.00  0.00    -0.479 OA
ATOM     19  HXT TRP A   1      26.380   8.107  10.105  0.00  0.00    +0.295 HD
ENDBRANCH  16  18
ENDBRANCH  12  16
ENDBRANCH  11  12
ENDBRANCH   1  11
TORSDOF 5
ENDMDL
MODEL 4
REMARK VINA RESULT:      -5.6     45.047     46.748
REMARK  Name = peptide_2_WKTMSPKIVL
REMARK  5 active torsions:
REMARK  status: ('A' for Active; 'I' for Inactive)
REMARK    1  A    between atoms: N_1  and  CA_2
REMARK    2  A    between atoms: CA_2  and  CB_3
REMARK    3  A    between atoms: CA_2  and  C_13
REMARK    4  A    between atoms: CB_3  and  CG_4
REMARK    5  A    between atoms: C_13  and  OXT_15
REMARK                            x       y       z     vdW  Elec       q    Type
REMARK                         _______ _______ _______ _____ _____    ______ ____
ROOT
ATOM      1  CG  TRP A   1      -6.586  -0.067  48.671  0.00  0.00    -0.020 A 
ATOM      2  CD1 TRP A   1      -6.314   1.292  48.537  0.00  0.00    +0.087 A 
ATOM      3  NE1 TRP A   1      -7.418   1.954  48.121  0.00  0.00    -0.360 N 
ATOM      4  CE2 TRP A   1      -8.378   1.024  47.980  0.00  0.00    +0.047 A 
ATOM      5  CZ2 TRP A   1      -9.691   1.222  47.553  0.00  0.00    +0.026 A 
ATOM      6  CH2 TRP A   1     -10.529   0.097  47.458  0.00  0.00    +0.002 A 
ATOM      7  CZ3 TRP A   1     -10.042  -1.188  47.787  0.00  0.00    +0.001 A 
ATOM      8  CE3 TRP A   1      -8.713  -1.358  48.214  0.00  0.00    +0.010 A 
ATOM      9  CD2 TRP A   1      -7.908  -0.222  48.303  0.00  0.00    +0.003 A 
ATOM     10  HE1 TRP A   1      -7.498   2.978  47.933  0.00  0.00    +0.165 HD
ENDROOT
BRANCH   1  11
ATOM     11  CB  TRP A   1      -5.605  -1.144  49.041  0.00  0.00    +0.067 C 
BRANCH  11  12
ATOM     12  CA  TRP A   1      -4.657  -1.473  47.871  0.00  0.00    +0.165 C 
BRANCH  12  13
ATOM     13  N   TRP A   1      -5.292  -2.390  46.922  0.00  0.00    -0.318 NA
ATOM     14  H1  TRP A   1      -5.937  -1.840  46.309  0.00  0.00    +0.119 HD
ATOM     15  H2  TRP A   1      -5.878  -3.083  47.444  0.00  0.00    +0.119 HD
ENDBRANCH  12  13
BRANCH  12  16
ATOM     16  C   TRP A   1      -3.368  -2.071  48.365  0.00  0.00    +0.322 C 
ATOM     17  O   TRP A   1      -3.168  -2.221  49.601  0.00  0.00    -0.249 OA
BRANCH  16  18
ATOM     18  OXT TRP A   1      -2.379  -2.431  47.454  0.00  0.00    -0.479 OA
ATOM     19  HXT TRP A   1      -1.437  -2.069  47.541  0.00  0.00    +0.295 HD
ENDBRANCH  16  18
ENDBRANCH  12  16
ENDBRANCH  11  12
ENDBRANCH   1  11
TORSDOF 5
ENDMDL
MODEL 5
REMARK VINA RESULT:      -5.3      2.482      3.391
REMARK  Name = peptide_2_WKTMSPKIVL
REMARK  5 active torsions:
REMARK  status: ('A' for Active; 'I' for Inactive)
REMARK    1  A    between atoms: N_1  and  CA_2
REMARK    2  A    between atoms: CA_2  and  CB_3
REMARK    3  A    between atoms: CA_2  and  C_13
REMARK    4  A    between atoms: CB_3  and  CG_4
REMARK    5  A    between atoms: C_13  and  OXT_15
REMARK                            x       y       z     vdW  Elec       q    Type
REMARK                         _______ _______ _______ _____ _____    ______ ____
ROOT
ATOM      1  CG  TRP A   1      20.261   7.403   9.103  0.00  0.00    -0.020 A 
ATOM      2  CD1 TRP A   1      20.591   8.656   8.593  0.00  0.00    +0.087 A 
ATOM      3  NE1 TRP A   1      21.886   8.680   8.203  0.00  0.00    -0.360 N 
ATOM      4  CE2 TRP A   1      22.379   7.459   8.475  0.00  0.00    +0.047 A 
ATOM      5  CZ2 TRP A   1      23.681   7.008   8.266  0.00  0.00    +0.026 A 
ATOM      6  CH2 TRP A   1      23.989   5.688   8.644  0.00  0.00    +0.002 A 
ATOM      7  CZ3 TRP A   1      22.999   4.859   9.218  0.00  0.00    +0.001 A 
ATOM      8  CE3 TRP A   1      21.694   5.342   9.418  0.00  0.00    +0.010 A 
ATOM      9  CD2 TRP A   1      21.418   6.653   9.029  0.00  0.00    +0.003 A 
ATOM     10  HE1 TRP A   1      22.399   9.491   7.791  0.00  0.00    +0.165 HD
ENDROOT
BRANCH   1  11
ATOM     11  CB  TRP A   1      18.944   6.999   9.703  0.00  0.00    +0.067 C 
BRANCH  11  12
ATOM     12  CA  TRP A   1      18.119   6.133   8.730  0.00  0.00    +0.165 C 
BRANCH  12  13
ATOM     13  N   TRP A   1      16.800   6.722   8.493  0.00  0.00    -0.318 NA
ATOM     14  H1  TRP A   1      16.816   7.716   8.819  0.00  0.00    +0.119 HD
ATOM     15  H2  TRP A   1      16.084   6.220   9.067  0.00  0.00    +0.119 HD
ENDBRANCH  12  13
BRANCH  12  16
ATOM     16  C   TRP A   1      17.960   4.731   9.249  0.00  0.00    +0.322 C 
ATOM     17  O   TRP A   1      18.554   4.368  10.301  0.00  0.00    -0.249 OA
BRANCH  16  18
ATOM     18  OXT TRP A   1      17.177   3.819   8.547  0.00  0.00    -0.479 OA
ATOM     19  HXT TRP A   1      16.215   4.032   8.313  0.00  0.00    +0.295 HD
ENDBRANCH  16  18
ENDBRANCH  12  16
ENDBRANCH  11  12
ENDBRANCH   1  11
TORSDOF 5
ENDMDL
MODEL 6
REMARK VINA RESULT:      -5.2     18.559     20.025
REMARK  Name = peptide_2_WKTMSPKIVL
REMARK  5 active torsions:
REMARK  status: ('A' for Active; 'I' for Inactive)
REMARK    1  A    between atoms: N_1  and  CA_2
REMARK    2  A    between atoms: CA_2  and  CB_3
REMARK    3  A    between atoms: CA_2  and  C_13
REMARK    4  A    between atoms: CB_3  and  CG_4
REMARK    5  A    between atoms: C_13  and  OXT_15
REMARK                            x       y       z     vdW  Elec       q    Type
REMARK                         _______ _______ _______ _____ _____    ______ ____
ROOT
ATOM      1  CG  TRP A   1       8.421   8.056  25.237  0.00  0.00    -0.020 A 
ATOM      2  CD1 TRP A   1       9.767   8.323  25.006  0.00  0.00    +0.087 A 
ATOM      3  NE1 TRP A   1      10.535   7.310  25.468  0.00  0.00    -0.360 N 
ATOM      4  CE2 TRP A   1       9.686   6.413  25.999  0.00  0.00    +0.047 A 
ATOM      5  CZ2 TRP A   1      10.009   5.206  26.617  0.00  0.00    +0.026 A 
ATOM      6  CH2 TRP A   1       8.956   4.423  27.124  0.00  0.00    +0.002 A 
ATOM      7  CZ3 TRP A   1       7.618   4.861  27.005  0.00  0.00    +0.001 A 
ATOM      8  CE3 TRP A   1       7.322   6.084  26.378  0.00  0.00    +0.010 A 
ATOM      9  CD2 TRP A   1       8.387   6.835  25.881  0.00  0.00    +0.003 A 
ATOM     10  HE1 TRP A   1      11.577   7.249  25.432  0.00  0.00    +0.165 HD
ENDROOT
BRANCH   1  11
ATOM     11  CB  TRP A   1       7.263   8.966  24.937  0.00  0.00    +0.067 C 
BRANCH  11  12
ATOM     12  CA  TRP A   1       6.867   9.805  26.168  0.00  0.00    +0.165 C 
BRANCH  12  13
ATOM     13  N   TRP A   1       7.969   9.877  27.130  0.00  0.00    -0.318 NA
ATOM     14  H1  TRP A   1       8.207   8.905  27.436  0.00  0.00    +0.119 HD
ATOM     15  H2  TRP A   1       7.658  10.401  27.980  0.00  0.00    +0.119 HD
ENDBRANCH  12  13
BRANCH  12  16
ATOM     16  C   TRP A   1       5.645   9.243  26.841  0.00  0.00    +0.322 C 
ATOM     17  O   TRP A   1       5.478   9.384  28.082  0.00  0.00    -0.249 OA
BRANCH  16  18
ATOM     18  OXT TRP A   1       4.708   8.537  26.092  0.00  0.00    -0.479 OA
ATOM     19  HXT TRP A   1       3.994   7.979  26.546  0.00  0.00    +0.295 HD
ENDBRANCH  16  18
ENDBRANCH  12  16
ENDBRANCH  11  12
ENDBRANCH   1  11
TORSDOF 5
ENDMDL
MODEL 7
REMARK VINA RESULT:      -5.2     21.617     23.071
REMARK  Name = peptide_2_WKTMSPKIVL
REMARK  5 active torsions:
REMARK  status: ('A' for Active; 'I' for Inactive)
REMARK    1  A    between atoms: N_1  and  CA_2
REMARK    2  A    between atoms: CA_2  and  CB_3
REMARK    3  A    between atoms: CA_2  and  C_13
REMARK    4  A    between atoms: CB_3  and  CG_4
REMARK    5  A    between atoms: C_13  and  OXT_15
REMARK                            x       y       z     vdW  Elec       q    Type
REMARK                         _______ _______ _______ _____ _____    ______ ____
ROOT
ATOM      1  CG  TRP A   1       2.584  -0.154  24.204  0.00  0.00    -0.020 A 
ATOM      2  CD1 TRP A   1       3.621   0.772  24.151  0.00  0.00    +0.087 A 
ATOM      3  NE1 TRP A   1       4.818   0.145  24.233  0.00  0.00    -0.360 N 
ATOM      4  CE2 TRP A   1       4.543  -1.166  24.349  0.00  0.00    +0.047 A 
ATOM      5  CZ2 TRP A   1       5.455  -2.212  24.483  0.00  0.00    +0.026 A 
ATOM      6  CH2 TRP A   1       4.945  -3.517  24.611  0.00  0.00    +0.002 A 
ATOM      7  CZ3 TRP A   1       3.551  -3.744  24.605  0.00  0.00    +0.001 A 
ATOM      8  CE3 TRP A   1       2.654  -2.669  24.470  0.00  0.00    +0.010 A 
ATOM      9  CD2 TRP A   1       3.190  -1.388  24.340  0.00  0.00    +0.003 A 
ATOM     10  HE1 TRP A   1       5.760   0.594  24.224  0.00  0.00    +0.165 HD
ENDROOT
BRANCH   1  11
ATOM     11  CB  TRP A   1       1.112   0.149  24.216  0.00  0.00    +0.067 C 
BRANCH  11  12
ATOM     12  CA  TRP A   1       0.731   1.065  25.396  0.00  0.00    +0.165 C 
BRANCH  12  13
ATOM     13  N   TRP A   1       0.125   0.295  26.483  0.00  0.00    -0.318 NA
ATOM     14  H1  TRP A   1      -0.132  -0.651  26.118  0.00  0.00    +0.119 HD
ATOM     15  H2  TRP A   1      -0.761   0.759  26.790  0.00  0.00    +0.119 HD
ENDBRANCH  12  13
BRANCH  12  16
ATOM     16  C   TRP A   1      -0.212   2.152  24.959  0.00  0.00    +0.322 C 
ATOM     17  O   TRP A   1      -1.395   2.183  25.395  0.00  0.00    -0.249 OA
BRANCH  16  18
ATOM     18  OXT TRP A   1       0.214   3.111  24.044  0.00  0.00    -0.479 OA
ATOM     19  HXT TRP A   1      -0.006   4.091  24.179  0.00  0.00    +0.295 HD
ENDBRANCH  16  18
ENDBRANCH  12  16
ENDBRANCH  11  12
ENDBRANCH   1  11
TORSDOF 5
ENDMDL
MODEL 8
REMARK VINA RESULT:      -5.1     21.454     22.967
REMARK  Name = peptide_2_WKTMSPKIVL
REMARK  5 active torsions:
REMARK  status: ('A' for Active; 'I' for Inactive)
REMARK    1  A    between atoms: N_1  and  CA_2
REMARK    2  A    between atoms: CA_2  and  CB_3
REMARK    3  A    between atoms: CA_2  and  C_13
REMARK    4  A    between atoms: CB_3  and  CG_4
REMARK    5  A    between atoms: C_13  and  OXT_15
REMARK                            x       y       z     vdW  Elec       q    Type
REMARK                         _______ _______ _______ _____ _____    ______ ____
ROOT
ATOM      1  CG  TRP A   1       4.530  -1.943  24.866  0.00  0.00    -0.020 A 
ATOM      2  CD1 TRP A   1       5.608  -1.091  24.646  0.00  0.00    +0.087 A 
ATOM      3  NE1 TRP A   1       5.185   0.072  24.098  0.00  0.00    -0.360 N 
ATOM      4  CE2 TRP A   1       3.853  -0.046  23.960  0.00  0.00    +0.047 A 
ATOM      5  CZ2 TRP A   1       2.973   0.893  23.421  0.00  0.00    +0.026 A 
ATOM      6  CH2 TRP A   1       1.610   0.553  23.353  0.00  0.00    +0.002 A 
ATOM      7  CZ3 TRP A   1       1.162  -0.704  23.817  0.00  0.00    +0.001 A 
ATOM      8  CE3 TRP A   1       2.072  -1.631  24.354  0.00  0.00    +0.010 A 
ATOM      9  CD2 TRP A   1       3.416  -1.263  24.413  0.00  0.00    +0.003 A 
ATOM     10  HE1 TRP A   1       5.779   0.886  23.825  0.00  0.00    +0.165 HD
ENDROOT
BRANCH   1  11
ATOM     11  CB  TRP A   1       4.593  -3.350  25.391  0.00  0.00    +0.067 C 
BRANCH  11  12
ATOM     12  CA  TRP A   1       5.882  -3.595  26.201  0.00  0.00    +0.165 C 
BRANCH  12  13
ATOM     13  N   TRP A   1       6.416  -4.934  25.943  0.00  0.00    -0.318 NA
ATOM     14  H1  TRP A   1       5.772  -5.428  25.283  0.00  0.00    +0.119 HD
ATOM     15  H2  TRP A   1       6.427  -5.484  26.834  0.00  0.00    +0.119 HD
ENDBRANCH  12  13
BRANCH  12  16
ATOM     16  C   TRP A   1       5.641  -3.423  27.675  0.00  0.00    +0.322 C 
ATOM     17  O   TRP A   1       5.477  -4.428  28.417  0.00  0.00    -0.249 OA
BRANCH  16  18
ATOM     18  OXT TRP A   1       5.567  -2.143  28.217  0.00  0.00    -0.479 OA
ATOM     19  HXT TRP A   1       5.954  -1.944  29.133  0.00  0.00    +0.295 HD
ENDBRANCH  16  18
ENDBRANCH  12  16
ENDBRANCH  11  12
ENDBRANCH   1  11
TORSDOF 5
ENDMDL
MODEL 9
REMARK VINA RESULT:      -5.1     46.866     48.064
REMARK  Name = peptide_2_WKTMSPKIVL
REMARK  5 active torsions:
REMARK  status: ('A' for Active; 'I' for Inactive)
REMARK    1  A    between atoms: N_1  and  CA_2
REMARK    2  A    between atoms: CA_2  and  CB_3
REMARK    3  A    between atoms: CA_2  and  C_13
REMARK    4  A    between atoms: CB_3  and  CG_4
REMARK    5  A    between atoms: C_13  and  OXT_15
REMARK                            x       y       z     vdW  Elec       q    Type
REMARK                         _______ _______ _______ _____ _____    ______ ____
ROOT
ATOM      1  CG  TRP A   1     -10.133  -1.425  47.732  0.00  0.00    -0.020 A 
ATOM      2  CD1 TRP A   1     -11.010  -1.250  48.798  0.00  0.00    +0.087 A 
ATOM      3  NE1 TRP A   1     -12.172  -1.902  48.564  0.00  0.00    -0.360 N 
ATOM      4  CE2 TRP A   1     -12.039  -2.476  47.355  0.00  0.00    +0.047 A 
ATOM      5  CZ2 TRP A   1     -12.985  -3.242  46.675  0.00  0.00    +0.026 A 
ATOM      6  CH2 TRP A   1     -12.641  -3.733  45.402  0.00  0.00    +0.002 A 
ATOM      7  CZ3 TRP A   1     -11.376  -3.448  44.843  0.00  0.00    +0.001 A 
ATOM      8  CE3 TRP A   1     -10.442  -2.672  45.552  0.00  0.00    +0.010 A 
ATOM      9  CD2 TRP A   1     -10.810  -2.204  46.814  0.00  0.00    +0.003 A 
ATOM     10  HE1 TRP A   1     -13.006  -1.937  49.191  0.00  0.00    +0.165 HD
ENDROOT
BRANCH   1  11
ATOM     11  CB  TRP A   1      -8.774  -0.802  47.579  0.00  0.00    +0.067 C 
BRANCH  11  12
ATOM     12  CA  TRP A   1      -8.747   0.641  48.122  0.00  0.00    +0.165 C 
BRANCH  12  13
ATOM     13  N   TRP A   1      -9.319   1.577  47.152  0.00  0.00    -0.318 NA
ATOM     14  H1  TRP A   1      -9.810   2.339  47.674  0.00  0.00    +0.119 HD
ATOM     15  H2  TRP A   1     -10.038   1.085  46.572  0.00  0.00    +0.119 HD
ENDBRANCH  12  13
BRANCH  12  16
ATOM     16  C   TRP A   1      -7.347   1.066  48.470  0.00  0.00    +0.322 C 
ATOM     17  O   TRP A   1      -6.563   0.267  49.050  0.00  0.00    -0.249 OA
BRANCH  16  18
ATOM     18  OXT TRP A   1      -6.925   2.360  48.177  0.00  0.00    -0.479 OA
ATOM     19  HXT TRP A   1      -7.583   3.131  48.168  0.00  0.00    +0.295 HD
ENDBRANCH  16  18
ENDBRANCH  12  16
ENDBRANCH  11  12
ENDBRANCH   1  11
TORSDOF 5
ENDMDL
