MODEL 1
REMARK VINA RESULT:      -4.8      0.000      0.000
REMARK  Name = peptide_5_PIGICVYPSR
REMARK  5 active torsions:
REMARK  status: ('A' for Active; 'I' for Inactive)
REMARK    1  A    between atoms: N_1  and  CA_2
REMARK    2  A    between atoms: CA_2  and  CB_3
REMARK    3  A    between atoms: CA_2  and  C_10
REMARK    4  A    between atoms: CB_3  and  CG_4
REMARK    5  A    between atoms: C_10  and  OXT_12
REMARK                            x       y       z     vdW  Elec       q    Type
REMARK                         _______ _______ _______ _____ _____    ______ ____
ROOT
ATOM      1  CA  PHE A   1       9.692  -5.827  42.877  0.00  0.00    +0.165 C 
ENDROOT
BRANCH   1   2
ATOM      2  N   PHE A   1       8.797  -6.215  41.783  0.00  0.00    -0.318 NA
ATOM      3  H1  PHE A   1       8.251  -5.374  41.485  0.00  0.00    +0.119 HD
ATOM      4  H2  PHE A   1       8.111  -6.926  42.128  0.00  0.00    +0.119 HD
ENDBRANCH   1   2
BRANCH   1   5
ATOM      5  C   PHE A   1       8.973  -5.990  44.188  0.00  0.00    +0.322 C 
ATOM      6  O   PHE A   1       8.630  -7.137  44.582  0.00  0.00    -0.249 OA
BRANCH   5   7
ATOM      7  OXT PHE A   1       8.700  -4.875  44.976  0.00  0.00    -0.479 OA
ATOM      8  HXT PHE A   1       9.419  -4.462  45.558  0.00  0.00    +0.295 HD
ENDBRANCH   5   7
ENDBRANCH   1   5
BRANCH   1   9
ATOM      9  CB  PHE A   1      10.196  -4.381  42.691  0.00  0.00    +0.065 C 
BRANCH   9  10
ATOM     10  CG  PHE A   1      11.622  -4.346  42.203  0.00  0.00    -0.045 A 
ATOM     11  CD1 PHE A   1      12.002  -3.447  41.192  0.00  0.00    +0.003 A 
ATOM     12  CE1 PHE A   1      13.317  -3.435  40.717  0.00  0.00    +0.000 A 
ATOM     13  CZ  PHE A   1      14.259  -4.323  41.243  0.00  0.00    +0.000 A 
ATOM     14  CE2 PHE A   1      13.888  -5.228  42.240  0.00  0.00    +0.000 A 
ATOM     15  CD2 PHE A   1      12.574  -5.243  42.718  0.00  0.00    +0.003 A 
ENDBRANCH   9  10
ENDBRANCH   1   9
TORSDOF 5
ENDMDL
MODEL 2
REMARK VINA RESULT:      -4.8     16.258     17.140
REMARK  Name = peptide_5_PIGICVYPSR
REMARK  5 active torsions:
REMARK  status: ('A' for Active; 'I' for Inactive)
REMARK    1  A    between atoms: N_1  and  CA_2
REMARK    2  A    between atoms: CA_2  and  CB_3
REMARK    3  A    between atoms: CA_2  and  C_10
REMARK    4  A    between atoms: CB_3  and  CG_4
REMARK    5  A    between atoms: C_10  and  OXT_12
REMARK                            x       y       z     vdW  Elec       q    Type
REMARK                         _______ _______ _______ _____ _____    ______ ____
ROOT
ATOM      1  CA  PHE A   1       6.880  -2.825  28.064  0.00  0.00    +0.165 C 
ENDROOT
BRANCH   1   2
ATOM      2  N   PHE A   1       8.325  -3.042  27.958  0.00  0.00    -0.318 NA
ATOM      3  H1  PHE A   1       8.656  -2.644  27.049  0.00  0.00    +0.119 HD
ATOM      4  H2  PHE A   1       8.523  -4.069  27.938  0.00  0.00    +0.119 HD
ENDBRANCH   1   2
BRANCH   1   5
ATOM      5  C   PHE A   1       6.430  -3.146  29.463  0.00  0.00    +0.322 C 
ATOM      6  O   PHE A   1       5.825  -4.226  29.699  0.00  0.00    -0.249 OA
BRANCH   5   7
ATOM      7  OXT PHE A   1       6.697  -2.259  30.502  0.00  0.00    -0.479 OA
ATOM      8  HXT PHE A   1       7.284  -2.534  31.281  0.00  0.00    +0.295 HD
ENDBRANCH   5   7
ENDBRANCH   1   5
BRANCH   1   9
ATOM      9  CB  PHE A   1       6.117  -3.672  27.023  0.00  0.00    +0.065 C 
BRANCH   9  10
ATOM     10  CG  PHE A   1       5.481  -2.810  25.962  0.00  0.00    -0.045 A 
ATOM     11  CD1 PHE A   1       4.441  -3.320  25.167  0.00  0.00    +0.003 A 
ATOM     12  CE1 PHE A   1       3.871  -2.532  24.162  0.00  0.00    +0.000 A 
ATOM     13  CZ  PHE A   1       4.339  -1.234  23.940  0.00  0.00    +0.000 A 
ATOM     14  CE2 PHE A   1       5.380  -0.723  24.719  0.00  0.00    +0.000 A 
ATOM     15  CD2 PHE A   1       5.952  -1.507  25.725  0.00  0.00    +0.003 A 
ENDBRANCH   9  10
ENDBRANCH   1   9
TORSDOF 5
ENDMDL
MODEL 3
REMARK VINA RESULT:      -4.8     34.592     35.777
REMARK  Name = peptide_5_PIGICVYPSR
REMARK  5 active torsions:
REMARK  status: ('A' for Active; 'I' for Inactive)
REMARK    1  A    between atoms: N_1  and  CA_2
REMARK    2  A    between atoms: CA_2  and  CB_3
REMARK    3  A    between atoms: CA_2  and  C_10
REMARK    4  A    between atoms: CB_3  and  CG_4
REMARK    5  A    between atoms: C_10  and  OXT_12
REMARK                            x       y       z     vdW  Elec       q    Type
REMARK                         _______ _______ _______ _____ _____    ______ ____
ROOT
ATOM      1  CA  PHE A   1      19.370   4.725   9.074  0.00  0.00    +0.165 C 
ENDROOT
BRANCH   1   2
ATOM      2  N   PHE A   1      18.844   3.815  10.094  0.00  0.00    -0.318 NA
ATOM      3  H1  PHE A   1      19.527   3.770  10.886  0.00  0.00    +0.119 HD
ATOM      4  H2  PHE A   1      18.767   2.851   9.696  0.00  0.00    +0.119 HD
ENDBRANCH   1   2
BRANCH   1   5
ATOM      5  C   PHE A   1      20.757   4.291   8.689  0.00  0.00    +0.322 C 
ATOM      6  O   PHE A   1      21.545   5.108   8.140  0.00  0.00    -0.249 OA
BRANCH   5   7
ATOM      7  OXT PHE A   1      21.180   2.992   8.952  0.00  0.00    -0.479 OA
ATOM      8  HXT PHE A   1      21.707   2.468   8.263  0.00  0.00    +0.295 HD
ENDBRANCH   5   7
ENDBRANCH   1   5
BRANCH   1   9
ATOM      9  CB  PHE A   1      19.360   6.183   9.579  0.00  0.00    +0.065 C 
BRANCH   9  10
ATOM     10  CG  PHE A   1      17.966   6.645   9.921  0.00  0.00    -0.045 A 
ATOM     11  CD1 PHE A   1      16.942   6.574   8.961  0.00  0.00    +0.003 A 
ATOM     12  CE1 PHE A   1      15.657   7.031   9.268  0.00  0.00    +0.000 A 
ATOM     13  CZ  PHE A   1      15.386   7.566  10.531  0.00  0.00    +0.000 A 
ATOM     14  CE2 PHE A   1      16.401   7.650  11.487  0.00  0.00    +0.000 A 
ATOM     15  CD2 PHE A   1      17.687   7.195  11.185  0.00  0.00    +0.003 A 
ENDBRANCH   9  10
ENDBRANCH   1   9
TORSDOF 5
ENDMDL
MODEL 4
REMARK VINA RESULT:      -4.8     35.033     35.883
REMARK  Name = peptide_5_PIGICVYPSR
REMARK  5 active torsions:
REMARK  status: ('A' for Active; 'I' for Inactive)
REMARK    1  A    between atoms: N_1  and  CA_2
REMARK    2  A    between atoms: CA_2  and  CB_3
REMARK    3  A    between atoms: CA_2  and  C_10
REMARK    4  A    between atoms: CB_3  and  CG_4
REMARK    5  A    between atoms: C_10  and  OXT_12
REMARK                            x       y       z     vdW  Elec       q    Type
REMARK                         _______ _______ _______ _____ _____    ______ ____
ROOT
ATOM      1  CA  PHE A   1      17.385   6.336  10.106  0.00  0.00    +0.165 C 
ENDROOT
BRANCH   1   2
ATOM      2  N   PHE A   1      16.873   5.921  11.415  0.00  0.00    -0.318 NA
ATOM      3  H1  PHE A   1      17.682   5.637  12.014  0.00  0.00    +0.119 HD
ATOM      4  H2  PHE A   1      16.261   5.081  11.300  0.00  0.00    +0.119 HD
ENDBRANCH   1   2
BRANCH   1   5
ATOM      5  C   PHE A   1      16.271   6.963   9.314  0.00  0.00    +0.322 C 
ATOM      6  O   PHE A   1      15.077   6.619   9.522  0.00  0.00    -0.249 OA
BRANCH   5   7
ATOM      7  OXT PHE A   1      16.556   7.936   8.359  0.00  0.00    -0.479 OA
ATOM      8  HXT PHE A   1      16.366   8.914   8.542  0.00  0.00    +0.295 HD
ENDBRANCH   5   7
ENDBRANCH   1   5
BRANCH   1   9
ATOM      9  CB  PHE A   1      18.004   5.141   9.352  0.00  0.00    +0.065 C 
BRANCH   9  10
ATOM     10  CG  PHE A   1      19.505   5.259   9.258  0.00  0.00    -0.045 A 
ATOM     11  CD1 PHE A   1      20.302   4.103   9.194  0.00  0.00    +0.003 A 
ATOM     12  CE1 PHE A   1      21.695   4.211   9.136  0.00  0.00    +0.000 A 
ATOM     13  CZ  PHE A   1      22.301   5.470   9.149  0.00  0.00    +0.000 A 
ATOM     14  CE2 PHE A   1      21.516   6.624   9.223  0.00  0.00    +0.000 A 
ATOM     15  CD2 PHE A   1      20.123   6.521   9.280  0.00  0.00    +0.003 A 
ENDBRANCH   9  10
ENDBRANCH   1   9
TORSDOF 5
ENDMDL
MODEL 5
REMARK VINA RESULT:      -4.7     35.506     36.600
REMARK  Name = peptide_5_PIGICVYPSR
REMARK  5 active torsions:
REMARK  status: ('A' for Active; 'I' for Inactive)
REMARK    1  A    between atoms: N_1  and  CA_2
REMARK    2  A    between atoms: CA_2  and  CB_3
REMARK    3  A    between atoms: CA_2  and  C_10
REMARK    4  A    between atoms: CB_3  and  CG_4
REMARK    5  A    between atoms: C_10  and  OXT_12
REMARK                            x       y       z     vdW  Elec       q    Type
REMARK                         _______ _______ _______ _____ _____    ______ ____
ROOT
ATOM      1  CA  PHE A   1      18.560   5.697   8.652  0.00  0.00    +0.165 C 
ENDROOT
BRANCH   1   2
ATOM      2  N   PHE A   1      17.386   6.534   8.394  0.00  0.00    -0.318 NA
ATOM      3  H1  PHE A   1      17.645   7.533   8.563  0.00  0.00    +0.119 HD
ATOM      4  H2  PHE A   1      16.628   6.291   9.072  0.00  0.00    +0.119 HD
ENDBRANCH   1   2
BRANCH   1   5
ATOM      5  C   PHE A   1      18.111   4.349   9.143  0.00  0.00    +0.322 C 
ATOM      6  O   PHE A   1      17.129   3.774   8.600  0.00  0.00    -0.249 OA
BRANCH   5   7
ATOM      7  OXT PHE A   1      18.789   3.725  10.187  0.00  0.00    -0.479 OA
ATOM      8  HXT PHE A   1      19.780   3.881  10.328  0.00  0.00    +0.295 HD
ENDBRANCH   5   7
ENDBRANCH   1   5
BRANCH   1   9
ATOM      9  CB  PHE A   1      19.508   6.374   9.664  0.00  0.00    +0.065 C 
BRANCH   9  10
ATOM     10  CG  PHE A   1      20.935   6.378   9.175  0.00  0.00    -0.045 A 
ATOM     11  CD1 PHE A   1      21.770   5.275   9.422  0.00  0.00    +0.003 A 
ATOM     12  CE1 PHE A   1      23.101   5.290   8.996  0.00  0.00    +0.000 A 
ATOM     13  CZ  PHE A   1      23.610   6.407   8.327  0.00  0.00    +0.000 A 
ATOM     14  CE2 PHE A   1      22.789   7.513   8.087  0.00  0.00    +0.000 A 
ATOM     15  CD2 PHE A   1      21.457   7.501   8.512  0.00  0.00    +0.003 A 
ENDBRANCH   9  10
ENDBRANCH   1   9
TORSDOF 5
ENDMDL
MODEL 6
REMARK VINA RESULT:      -4.7     34.896     35.933
REMARK  Name = peptide_5_PIGICVYPSR
REMARK  5 active torsions:
REMARK  status: ('A' for Active; 'I' for Inactive)
REMARK    1  A    between atoms: N_1  and  CA_2
REMARK    2  A    between atoms: CA_2  and  CB_3
REMARK    3  A    between atoms: CA_2  and  C_10
REMARK    4  A    between atoms: CB_3  and  CG_4
REMARK    5  A    between atoms: C_10  and  OXT_12
REMARK                            x       y       z     vdW  Elec       q    Type
REMARK                         _______ _______ _______ _____ _____    ______ ____
ROOT
ATOM      1  CA  PHE A   1      17.891   6.234   9.031  0.00  0.00    +0.165 C 
ENDROOT
BRANCH   1   2
ATOM      2  N   PHE A   1      17.202   7.049   8.028  0.00  0.00    -0.318 NA
ATOM      3  H1  PHE A   1      17.907   7.403   7.342  0.00  0.00    +0.119 HD
ATOM      4  H2  PHE A   1      16.773   7.884   8.490  0.00  0.00    +0.119 HD
ENDBRANCH   1   2
BRANCH   1   5
ATOM      5  C   PHE A   1      16.927   5.873  10.127  0.00  0.00    +0.322 C 
ATOM      6  O   PHE A   1      17.338   5.740  11.310  0.00  0.00    -0.249 OA
BRANCH   5   7
ATOM      7  OXT PHE A   1      15.576   5.701   9.838  0.00  0.00    -0.479 OA
ATOM      8  HXT PHE A   1      15.074   6.380   9.277  0.00  0.00    +0.295 HD
ENDBRANCH   5   7
ENDBRANCH   1   5
BRANCH   1   9
ATOM      9  CB  PHE A   1      19.123   6.976   9.591  0.00  0.00    +0.065 C 
BRANCH   9  10
ATOM     10  CG  PHE A   1      20.385   6.168   9.423  0.00  0.00    -0.045 A 
ATOM     11  CD1 PHE A   1      20.313   4.777   9.234  0.00  0.00    +0.003 A 
ATOM     12  CE1 PHE A   1      21.484   4.023   9.108  0.00  0.00    +0.000 A 
ATOM     13  CZ  PHE A   1      22.732   4.649   9.176  0.00  0.00    +0.000 A 
ATOM     14  CE2 PHE A   1      22.812   6.030   9.375  0.00  0.00    +0.000 A 
ATOM     15  CD2 PHE A   1      21.644   6.788   9.501  0.00  0.00    +0.003 A 
ENDBRANCH   9  10
ENDBRANCH   1   9
TORSDOF 5
ENDMDL
MODEL 7
REMARK VINA RESULT:      -4.6     32.998     34.510
REMARK  Name = peptide_5_PIGICVYPSR
REMARK  5 active torsions:
REMARK  status: ('A' for Active; 'I' for Inactive)
REMARK    1  A    between atoms: N_1  and  CA_2
REMARK    2  A    between atoms: CA_2  and  CB_3
REMARK    3  A    between atoms: CA_2  and  C_10
REMARK    4  A    between atoms: CB_3  and  CG_4
REMARK    5  A    between atoms: C_10  and  OXT_12
REMARK                            x       y       z     vdW  Elec       q    Type
REMARK                         _______ _______ _______ _____ _____    ______ ____
ROOT
ATOM      1  CA  PHE A   1      17.659   6.027   9.528  0.00  0.00    +0.165 C 
ENDROOT
BRANCH   1   2
ATOM      2  N   PHE A   1      17.126   6.556   8.270  0.00  0.00    -0.318 NA
ATOM      3  H1  PHE A   1      17.678   7.403   8.004  0.00  0.00    +0.119 HD
ATOM      4  H2  PHE A   1      16.136   6.862   8.412  0.00  0.00    +0.119 HD
ENDBRANCH   1   2
BRANCH   1   5
ATOM      5  C   PHE A   1      17.968   4.565   9.361  0.00  0.00    +0.322 C 
ATOM      6  O   PHE A   1      17.286   3.862   8.569  0.00  0.00    -0.249 OA
BRANCH   5   7
ATOM      7  OXT PHE A   1      19.020   3.990  10.069  0.00  0.00    -0.479 OA
ATOM      8  HXT PHE A   1      19.963   4.349   9.981  0.00  0.00    +0.295 HD
ENDBRANCH   5   7
ENDBRANCH   1   5
BRANCH   1   9
ATOM      9  CB  PHE A   1      16.668   6.260  10.688  0.00  0.00    +0.065 C 
BRANCH   9  10
ATOM     10  CG  PHE A   1      17.242   7.179  11.736  0.00  0.00    -0.045 A 
ATOM     11  CD1 PHE A   1      16.929   6.987  13.093  0.00  0.00    +0.003 A 
ATOM     12  CE1 PHE A   1      17.438   7.857  14.062  0.00  0.00    +0.000 A 
ATOM     13  CZ  PHE A   1      18.254   8.927  13.685  0.00  0.00    +0.000 A 
ATOM     14  CE2 PHE A   1      18.562   9.131  12.337  0.00  0.00    +0.000 A 
ATOM     15  CD2 PHE A   1      18.056   8.263  11.365  0.00  0.00    +0.003 A 
ENDBRANCH   9  10
ENDBRANCH   1   9
TORSDOF 5
ENDMDL
MODEL 8
REMARK VINA RESULT:      -4.5     20.254     21.077
REMARK  Name = peptide_5_PIGICVYPSR
REMARK  5 active torsions:
REMARK  status: ('A' for Active; 'I' for Inactive)
REMARK    1  A    between atoms: N_1  and  CA_2
REMARK    2  A    between atoms: CA_2  and  CB_3
REMARK    3  A    between atoms: CA_2  and  C_10
REMARK    4  A    between atoms: CB_3  and  CG_4
REMARK    5  A    between atoms: C_10  and  OXT_12
REMARK                            x       y       z     vdW  Elec       q    Type
REMARK                         _______ _______ _______ _____ _____    ______ ____
ROOT
ATOM      1  CA  PHE A   1       0.720   1.209  25.331  0.00  0.00    +0.165 C 
ENDROOT
BRANCH   1   2
ATOM      2  N   PHE A   1       0.224   0.580  26.558  0.00  0.00    -0.318 NA
ATOM      3  H1  PHE A   1       0.886   0.800  27.337  0.00  0.00    +0.119 HD
ATOM      4  H2  PHE A   1       0.217  -0.459  26.440  0.00  0.00    +0.119 HD
ENDBRANCH   1   2
BRANCH   1   5
ATOM      5  C   PHE A   1      -0.236   2.289  24.905  0.00  0.00    +0.322 C 
ATOM      6  O   PHE A   1      -1.429   2.273  25.310  0.00  0.00    -0.249 OA
BRANCH   5   7
ATOM      7  OXT PHE A   1       0.201   3.319  24.076  0.00  0.00    -0.479 OA
ATOM      8  HXT PHE A   1      -0.266   3.511  23.197  0.00  0.00    +0.295 HD
ENDBRANCH   5   7
ENDBRANCH   1   5
BRANCH   1   9
ATOM      9  CB  PHE A   1       0.913   0.161  24.214  0.00  0.00    +0.065 C 
BRANCH   9  10
ATOM     10  CG  PHE A   1       2.297  -0.438  24.247  0.00  0.00    -0.045 A 
ATOM     11  CD1 PHE A   1       2.462  -1.828  24.374  0.00  0.00    +0.003 A 
ATOM     12  CE1 PHE A   1       3.744  -2.382  24.434  0.00  0.00    +0.000 A 
ATOM     13  CZ  PHE A   1       4.869  -1.554  24.375  0.00  0.00    +0.000 A 
ATOM     14  CE2 PHE A   1       4.713  -0.170  24.259  0.00  0.00    +0.000 A 
ATOM     15  CD2 PHE A   1       3.433   0.388  24.198  0.00  0.00    +0.003 A 
ENDBRANCH   9  10
ENDBRANCH   1   9
TORSDOF 5
ENDMDL
MODEL 9
REMARK VINA RESULT:      -4.5     35.942     36.628
REMARK  Name = peptide_5_PIGICVYPSR
REMARK  5 active torsions:
REMARK  status: ('A' for Active; 'I' for Inactive)
REMARK    1  A    between atoms: N_1  and  CA_2
REMARK    2  A    between atoms: CA_2  and  CB_3
REMARK    3  A    between atoms: CA_2  and  C_10
REMARK    4  A    between atoms: CB_3  and  CG_4
REMARK    5  A    between atoms: C_10  and  OXT_12
REMARK                            x       y       z     vdW  Elec       q    Type
REMARK                         _______ _______ _______ _____ _____    ______ ____
ROOT
ATOM      1  CA  PHE A   1      21.622   6.307   8.646  0.00  0.00    +0.165 C 
ENDROOT
BRANCH   1   2
ATOM      2  N   PHE A   1      22.484   5.841   7.558  0.00  0.00    -0.318 NA
ATOM      3  H1  PHE A   1      23.451   5.703   7.933  0.00  0.00    +0.119 HD
ATOM      4  H2  PHE A   1      22.541   6.578   6.817  0.00  0.00    +0.119 HD
ENDBRANCH   1   2
BRANCH   1   5
ATOM      5  C   PHE A   1      22.469   6.942   9.714  0.00  0.00    +0.322 C 
ATOM      6  O   PHE A   1      22.047   7.953  10.337  0.00  0.00    -0.249 OA
BRANCH   5   7
ATOM      7  OXT PHE A   1      23.714   6.404  10.029  0.00  0.00    -0.479 OA
ATOM      8  HXT PHE A   1      23.866   5.925  10.908  0.00  0.00    +0.295 HD
ENDBRANCH   5   7
ENDBRANCH   1   5
BRANCH   1   9
ATOM      9  CB  PHE A   1      20.779   5.148   9.217  0.00  0.00    +0.065 C 
BRANCH   9  10
ATOM     10  CG  PHE A   1      19.307   5.473   9.210  0.00  0.00    -0.045 A 
ATOM     11  CD1 PHE A   1      18.878   6.811   9.236  0.00  0.00    +0.003 A 
ATOM     12  CE1 PHE A   1      17.513   7.113   9.260  0.00  0.00    +0.000 A 
ATOM     13  CZ  PHE A   1      16.568   6.084   9.265  0.00  0.00    +0.000 A 
ATOM     14  CE2 PHE A   1      16.986   4.750   9.250  0.00  0.00    +0.000 A 
ATOM     15  CD2 PHE A   1      18.349   4.444   9.225  0.00  0.00    +0.003 A 
ENDBRANCH   9  10
ENDBRANCH   1   9
TORSDOF 5
ENDMDL
