MODEL 1
REMARK VINA RESULT:      -4.2      0.000      0.000
REMARK  Name = peptide_1_VAGKVAIRKD
REMARK  7 active torsions:
REMARK  status: ('A' for Active; 'I' for Inactive)
REMARK    1  A    between atoms: N_1  and  CA_2
REMARK    2  A    between atoms: CA_2  and  CB_3
REMARK    3  A    between atoms: CA_2  and  C_7
REMARK    4  A    between atoms: CB_3  and  CG2_4
REMARK    5  A    between atoms: CB_3  and  CG1_5
REMARK    6  A    between atoms: CG1_5  and  CD1_6
REMARK    7  A    between atoms: C_7  and  OXT_9
REMARK                            x       y       z     vdW  Elec       q    Type
REMARK                         _______ _______ _______ _____ _____    ______ ____
ROOT
ATOM      1  CA  ILE A   1      20.713   4.414   8.631  0.00  0.00    +0.164 C 
ENDROOT
BRANCH   1   2
ATOM      2  N   ILE A   1      21.046   3.032   8.991  0.00  0.00    -0.318 NA
ATOM      3  H1  ILE A   1      20.796   2.872   9.995  0.00  0.00    +0.119 HD
ATOM      4  H2  ILE A   1      22.084   2.922   8.957  0.00  0.00    +0.119 HD
ENDBRANCH   1   2
BRANCH   1   5
ATOM      5  CB  ILE A   1      19.570   4.973   9.534  0.00  0.00    +0.013 C 
ATOM      6  CG2 ILE A   1      19.385   6.485   9.296  0.00  0.00    +0.009 C 
BRANCH   5   7
ATOM      7  CG1 ILE A   1      18.214   4.247   9.298  0.00  0.00    +0.002 C 
ATOM      8  CD1 ILE A   1      17.018   5.201   9.352  0.00  0.00    +0.004 C 
ENDBRANCH   5   7
ENDBRANCH   1   5
BRANCH   1   9
ATOM      9  C   ILE A   1      21.950   5.265   8.757  0.00  0.00    +0.322 C 
ATOM     10  O   ILE A   1      22.554   5.344   9.861  0.00  0.00    -0.249 OA
BRANCH   9  11
ATOM     11  OXT ILE A   1      22.432   5.963   7.653  0.00  0.00    -0.479 OA
ATOM     12  HXT ILE A   1      21.905   5.991   6.787  0.00  0.00    +0.295 HD
ENDBRANCH   9  11
ENDBRANCH   1   9
TORSDOF 5
ENDMDL
MODEL 2
REMARK VINA RESULT:      -4.2     47.685     48.709
REMARK  Name = peptide_1_VAGKVAIRKD
REMARK  7 active torsions:
REMARK  status: ('A' for Active; 'I' for Inactive)
REMARK    1  A    between atoms: N_1  and  CA_2
REMARK    2  A    between atoms: CA_2  and  CB_3
REMARK    3  A    between atoms: CA_2  and  C_7
REMARK    4  A    between atoms: CB_3  and  CG2_4
REMARK    5  A    between atoms: CB_3  and  CG1_5
REMARK    6  A    between atoms: CG1_5  and  CD1_6
REMARK    7  A    between atoms: C_7  and  OXT_9
REMARK                            x       y       z     vdW  Elec       q    Type
REMARK                         _______ _______ _______ _____ _____    ______ ____
ROOT
ATOM      1  CA  ILE A   1      -8.716   0.765  47.514  0.00  0.00    +0.164 C 
ENDROOT
BRANCH   1   2
ATOM      2  N   ILE A   1      -9.136   2.123  47.877  0.00  0.00    -0.318 NA
ATOM      3  H1  ILE A   1      -8.545   2.458  48.675  0.00  0.00    +0.119 HD
ATOM      4  H2  ILE A   1     -10.104   2.077  48.267  0.00  0.00    +0.119 HD
ENDBRANCH   1   2
BRANCH   1   5
ATOM      5  CB  ILE A   1      -7.528   0.284  48.403  0.00  0.00    +0.013 C 
ATOM      6  CG2 ILE A   1      -7.197  -1.193  48.107  0.00  0.00    +0.009 C 
BRANCH   5   7
ATOM      7  CG1 ILE A   1      -6.248   1.147  48.206  0.00  0.00    +0.002 C 
ATOM      8  CD1 ILE A   1      -4.963   0.318  48.277  0.00  0.00    +0.004 C 
ENDBRANCH   5   7
ENDBRANCH   1   5
BRANCH   1   9
ATOM      9  C   ILE A   1      -9.894  -0.165  47.657  0.00  0.00    +0.322 C 
ATOM     10  O   ILE A   1     -10.332  -0.790  46.654  0.00  0.00    -0.249 OA
BRANCH   9  11
ATOM     11  OXT ILE A   1     -10.497  -0.339  48.900  0.00  0.00    -0.479 OA
ATOM     12  HXT ILE A   1     -10.626   0.445  49.528  0.00  0.00    +0.295 HD
ENDBRANCH   9  11
ENDBRANCH   1   9
TORSDOF 5
ENDMDL
MODEL 3
REMARK VINA RESULT:      -4.1     35.764     36.511
REMARK  Name = peptide_1_VAGKVAIRKD
REMARK  7 active torsions:
REMARK  status: ('A' for Active; 'I' for Inactive)
REMARK    1  A    between atoms: N_1  and  CA_2
REMARK    2  A    between atoms: CA_2  and  CB_3
REMARK    3  A    between atoms: CA_2  and  C_7
REMARK    4  A    between atoms: CB_3  and  CG2_4
REMARK    5  A    between atoms: CB_3  and  CG1_5
REMARK    6  A    between atoms: CG1_5  and  CD1_6
REMARK    7  A    between atoms: C_7  and  OXT_9
REMARK                            x       y       z     vdW  Elec       q    Type
REMARK                         _______ _______ _______ _____ _____    ______ ____
ROOT
ATOM      1  CA  ILE A   1      10.307  -4.730  42.474  0.00  0.00    +0.164 C 
ENDROOT
BRANCH   1   2
ATOM      2  N   ILE A   1       9.593  -3.522  42.048  0.00  0.00    -0.318 NA
ATOM      3  H1  ILE A   1       8.563  -3.691  42.127  0.00  0.00    +0.119 HD
ATOM      4  H2  ILE A   1       9.760  -3.381  41.026  0.00  0.00    +0.119 HD
ENDBRANCH   1   2
BRANCH   1   5
ATOM      5  CB  ILE A   1      11.794  -4.412  42.828  0.00  0.00    +0.013 C 
ATOM      6  CG2 ILE A   1      12.706  -5.590  42.431  0.00  0.00    +0.009 C 
BRANCH   5   7
ATOM      7  CG1 ILE A   1      12.305  -3.112  42.142  0.00  0.00    +0.002 C 
ATOM      8  CD1 ILE A   1      13.010  -3.388  40.812  0.00  0.00    +0.004 C 
ENDBRANCH   5   7
ENDBRANCH   1   5
BRANCH   1   9
ATOM      9  C   ILE A   1       9.596  -5.324  43.663  0.00  0.00    +0.322 C 
ATOM     10  O   ILE A   1       9.844  -6.506  44.022  0.00  0.00    -0.249 OA
BRANCH   9  11
ATOM     11  OXT ILE A   1       8.665  -4.566  44.368  0.00  0.00    -0.479 OA
ATOM     12  HXT ILE A   1       8.296  -4.891  45.254  0.00  0.00    +0.295 HD
ENDBRANCH   9  11
ENDBRANCH   1   9
TORSDOF 5
ENDMDL
MODEL 4
REMARK VINA RESULT:      -3.9      3.379      3.984
REMARK  Name = peptide_1_VAGKVAIRKD
REMARK  7 active torsions:
REMARK  status: ('A' for Active; 'I' for Inactive)
REMARK    1  A    between atoms: N_1  and  CA_2
REMARK    2  A    between atoms: CA_2  and  CB_3
REMARK    3  A    between atoms: CA_2  and  C_7
REMARK    4  A    between atoms: CB_3  and  CG2_4
REMARK    5  A    between atoms: CB_3  and  CG1_5
REMARK    6  A    between atoms: CG1_5  and  CD1_6
REMARK    7  A    between atoms: C_7  and  OXT_9
REMARK                            x       y       z     vdW  Elec       q    Type
REMARK                         _______ _______ _______ _____ _____    ______ ____
ROOT
ATOM      1  CA  ILE A   1      18.225   6.057   9.061  0.00  0.00    +0.164 C 
ENDROOT
BRANCH   1   2
ATOM      2  N   ILE A   1      17.127   6.529   8.211  0.00  0.00    -0.318 NA
ATOM      3  H1  ILE A   1      17.327   7.513   7.913  0.00  0.00    +0.119 HD
ATOM      4  H2  ILE A   1      16.263   6.600   8.794  0.00  0.00    +0.119 HD
ENDBRANCH   1   2
BRANCH   1   5
ATOM      5  CB  ILE A   1      18.224   6.785  10.441  0.00  0.00    +0.013 C 
ATOM      6  CG2 ILE A   1      18.962   8.135  10.340  0.00  0.00    +0.009 C 
BRANCH   5   7
ATOM      7  CG1 ILE A   1      16.787   7.026  10.987  0.00  0.00    +0.002 C 
ATOM      8  CD1 ILE A   1      16.699   6.860  12.506  0.00  0.00    +0.004 C 
ENDBRANCH   5   7
ENDBRANCH   1   5
BRANCH   1   9
ATOM      9  C   ILE A   1      18.093   4.568   9.249  0.00  0.00    +0.322 C 
ATOM     10  O   ILE A   1      17.222   3.923   8.605  0.00  0.00    -0.249 OA
BRANCH   9  11
ATOM     11  OXT ILE A   1      18.936   3.900  10.134  0.00  0.00    -0.479 OA
ATOM     12  HXT ILE A   1      19.046   2.894  10.086  0.00  0.00    +0.295 HD
ENDBRANCH   9  11
ENDBRANCH   1   9
TORSDOF 5
ENDMDL
MODEL 5
REMARK VINA RESULT:      -3.9     41.532     42.373
REMARK  Name = peptide_1_VAGKVAIRKD
REMARK  7 active torsions:
REMARK  status: ('A' for Active; 'I' for Inactive)
REMARK    1  A    between atoms: N_1  and  CA_2
REMARK    2  A    between atoms: CA_2  and  CB_3
REMARK    3  A    between atoms: CA_2  and  C_7
REMARK    4  A    between atoms: CB_3  and  CG2_4
REMARK    5  A    between atoms: CB_3  and  CG1_5
REMARK    6  A    between atoms: CG1_5  and  CD1_6
REMARK    7  A    between atoms: C_7  and  OXT_9
REMARK                            x       y       z     vdW  Elec       q    Type
REMARK                         _______ _______ _______ _____ _____    ______ ____
ROOT
ATOM      1  CA  ILE A   1       6.636  -6.174  47.377  0.00  0.00    +0.164 C 
ENDROOT
BRANCH   1   2
ATOM      2  N   ILE A   1       7.543  -5.185  47.968  0.00  0.00    -0.318 NA
ATOM      3  H1  ILE A   1       7.035  -4.274  48.066  0.00  0.00    +0.119 HD
ATOM      4  H2  ILE A   1       8.309  -4.989  47.286  0.00  0.00    +0.119 HD
ENDBRANCH   1   2
BRANCH   1   5
ATOM      5  CB  ILE A   1       5.207  -6.073  47.997  0.00  0.00    +0.013 C 
ATOM      6  CG2 ILE A   1       5.200  -6.643  49.430  0.00  0.00    +0.009 C 
BRANCH   5   7
ATOM      7  CG1 ILE A   1       4.670  -4.613  48.023  0.00  0.00    +0.002 C 
ATOM      8  CD1 ILE A   1       4.492  -4.077  49.445  0.00  0.00    +0.004 C 
ENDBRANCH   5   7
ENDBRANCH   1   5
BRANCH   1   9
ATOM      9  C   ILE A   1       6.581  -5.957  45.886  0.00  0.00    +0.322 C 
ATOM     10  O   ILE A   1       5.633  -6.440  45.211  0.00  0.00    -0.249 OA
BRANCH   9  11
ATOM     11  OXT ILE A   1       7.576  -5.218  45.253  0.00  0.00    -0.479 OA
ATOM     12  HXT ILE A   1       7.832  -4.297  45.589  0.00  0.00    +0.295 HD
ENDBRANCH   9  11
ENDBRANCH   1   9
TORSDOF 5
ENDMDL
MODEL 6
REMARK VINA RESULT:      -3.8     20.425     21.436
REMARK  Name = peptide_1_VAGKVAIRKD
REMARK  7 active torsions:
REMARK  status: ('A' for Active; 'I' for Inactive)
REMARK    1  A    between atoms: N_1  and  CA_2
REMARK    2  A    between atoms: CA_2  and  CB_3
REMARK    3  A    between atoms: CA_2  and  C_7
REMARK    4  A    between atoms: CB_3  and  CG2_4
REMARK    5  A    between atoms: CB_3  and  CG1_5
REMARK    6  A    between atoms: CG1_5  and  CD1_6
REMARK    7  A    between atoms: C_7  and  OXT_9
REMARK                            x       y       z     vdW  Elec       q    Type
REMARK                         _______ _______ _______ _____ _____    ______ ____
ROOT
ATOM      1  CA  ILE A   1       7.144   7.658  25.876  0.00  0.00    +0.164 C 
ENDROOT
BRANCH   1   2
ATOM      2  N   ILE A   1       6.088   7.555  26.887  0.00  0.00    -0.318 NA
ATOM      3  H1  ILE A   1       6.162   6.624  27.362  0.00  0.00    +0.119 HD
ATOM      4  H2  ILE A   1       5.164   7.530  26.400  0.00  0.00    +0.119 HD
ENDBRANCH   1   2
BRANCH   1   5
ATOM      5  CB  ILE A   1       7.861   6.288  25.665  0.00  0.00    +0.013 C 
ATOM      6  CG2 ILE A   1       9.391   6.479  25.639  0.00  0.00    +0.009 C 
BRANCH   5   7
ATOM      7  CG1 ILE A   1       7.492   5.247  26.760  0.00  0.00    +0.002 C 
ATOM      8  CD1 ILE A   1       8.710   4.478  27.275  0.00  0.00    +0.004 C 
ENDBRANCH   5   7
ENDBRANCH   1   5
BRANCH   1   9
ATOM      9  C   ILE A   1       6.539   8.143  24.583  0.00  0.00    +0.322 C 
ATOM     10  O   ILE A   1       5.289   8.118  24.422  0.00  0.00    -0.249 OA
BRANCH   9  11
ATOM     11  OXT ILE A   1       7.360   8.622  23.566  0.00  0.00    -0.479 OA
ATOM     12  HXT ILE A   1       8.311   8.911  23.760  0.00  0.00    +0.295 HD
ENDBRANCH   9  11
ENDBRANCH   1   9
TORSDOF 5
ENDMDL
MODEL 7
REMARK VINA RESULT:      -3.8     22.633     23.673
REMARK  Name = peptide_1_VAGKVAIRKD
REMARK  7 active torsions:
REMARK  status: ('A' for Active; 'I' for Inactive)
REMARK    1  A    between atoms: N_1  and  CA_2
REMARK    2  A    between atoms: CA_2  and  CB_3
REMARK    3  A    between atoms: CA_2  and  C_7
REMARK    4  A    between atoms: CB_3  and  CG2_4
REMARK    5  A    between atoms: CB_3  and  CG1_5
REMARK    6  A    between atoms: CG1_5  and  CD1_6
REMARK    7  A    between atoms: C_7  and  OXT_9
REMARK                            x       y       z     vdW  Elec       q    Type
REMARK                         _______ _______ _______ _____ _____    ______ ____
ROOT
ATOM      1  CA  ILE A   1       5.266  -2.899  26.060  0.00  0.00    +0.164 C 
ENDROOT
BRANCH   1   2
ATOM      2  N   ILE A   1       6.125  -2.011  26.849  0.00  0.00    -0.318 NA
ATOM      3  H1  ILE A   1       7.087  -2.011  26.433  0.00  0.00    +0.119 HD
ATOM      4  H2  ILE A   1       6.249  -2.428  27.799  0.00  0.00    +0.119 HD
ENDBRANCH   1   2
BRANCH   1   5
ATOM      5  CB  ILE A   1       5.216  -2.455  24.564  0.00  0.00    +0.013 C 
ATOM      6  CG2 ILE A   1       3.802  -2.668  23.986  0.00  0.00    +0.009 C 
BRANCH   5   7
ATOM      7  CG1 ILE A   1       5.631  -0.968  24.370  0.00  0.00    +0.002 C 
ATOM      8  CD1 ILE A   1       4.428  -0.026  24.301  0.00  0.00    +0.004 C 
ENDBRANCH   5   7
ENDBRANCH   1   5
BRANCH   1   9
ATOM      9  C   ILE A   1       5.784  -4.310  26.175  0.00  0.00    +0.322 C 
ATOM     10  O   ILE A   1       5.361  -5.067  27.090  0.00  0.00    -0.249 OA
BRANCH   9  11
ATOM     11  OXT ILE A   1       6.729  -4.781  25.267  0.00  0.00    -0.479 OA
ATOM     12  HXT ILE A   1       7.032  -4.207  24.489  0.00  0.00    +0.295 HD
ENDBRANCH   9  11
ENDBRANCH   1   9
TORSDOF 5
ENDMDL
MODEL 8
REMARK VINA RESULT:      -3.8     21.289     21.944
REMARK  Name = peptide_1_VAGKVAIRKD
REMARK  7 active torsions:
REMARK  status: ('A' for Active; 'I' for Inactive)
REMARK    1  A    between atoms: N_1  and  CA_2
REMARK    2  A    between atoms: CA_2  and  CB_3
REMARK    3  A    between atoms: CA_2  and  C_7
REMARK    4  A    between atoms: CB_3  and  CG2_4
REMARK    5  A    between atoms: CB_3  and  CG1_5
REMARK    6  A    between atoms: CG1_5  and  CD1_6
REMARK    7  A    between atoms: C_7  and  OXT_9
REMARK                            x       y       z     vdW  Elec       q    Type
REMARK                         _______ _______ _______ _____ _____    ______ ____
ROOT
ATOM      1  CA  ILE A   1      15.802   3.679  30.688  0.00  0.00    +0.164 C 
ENDROOT
BRANCH   1   2
ATOM      2  N   ILE A   1      17.021   4.465  30.471  0.00  0.00    -0.318 NA
ATOM      3  H1  ILE A   1      17.280   4.417  29.457  0.00  0.00    +0.119 HD
ATOM      4  H2  ILE A   1      17.811   3.996  30.968  0.00  0.00    +0.119 HD
ENDBRANCH   1   2
BRANCH   1   5
ATOM      5  CB  ILE A   1      14.560   4.603  30.883  0.00  0.00    +0.013 C 
ATOM      6  CG2 ILE A   1      14.577   5.239  32.287  0.00  0.00    +0.009 C 
BRANCH   5   7
ATOM      7  CG1 ILE A   1      14.480   5.728  29.811  0.00  0.00    +0.002 C 
ATOM      8  CD1 ILE A   1      13.276   6.650  30.015  0.00  0.00    +0.004 C 
ENDBRANCH   5   7
ENDBRANCH   1   5
BRANCH   1   9
ATOM      9  C   ILE A   1      15.597   2.759  29.511  0.00  0.00    +0.322 C 
ATOM     10  O   ILE A   1      16.027   3.084  28.372  0.00  0.00    -0.249 OA
BRANCH   9  11
ATOM     11  OXT ILE A   1      14.934   1.547  29.682  0.00  0.00    -0.479 OA
ATOM     12  HXT ILE A   1      14.516   1.068  28.893  0.00  0.00    +0.295 HD
ENDBRANCH   9  11
ENDBRANCH   1   9
TORSDOF 5
ENDMDL
MODEL 9
REMARK VINA RESULT:      -3.8     18.427     19.041
REMARK  Name = peptide_1_VAGKVAIRKD
REMARK  7 active torsions:
REMARK  status: ('A' for Active; 'I' for Inactive)
REMARK    1  A    between atoms: N_1  and  CA_2
REMARK    2  A    between atoms: CA_2  and  CB_3
REMARK    3  A    between atoms: CA_2  and  C_7
REMARK    4  A    between atoms: CB_3  and  CG2_4
REMARK    5  A    between atoms: CB_3  and  CG1_5
REMARK    6  A    between atoms: CG1_5  and  CD1_6
REMARK    7  A    between atoms: C_7  and  OXT_9
REMARK                            x       y       z     vdW  Elec       q    Type
REMARK                         _______ _______ _______ _____ _____    ______ ____
ROOT
ATOM      1  CA  ILE A   1      23.434   8.661  26.653  0.00  0.00    +0.164 C 
ENDROOT
BRANCH   1   2
ATOM      2  N   ILE A   1      23.700   9.445  25.443  0.00  0.00    -0.318 NA
ATOM      3  H1  ILE A   1      22.834   9.976  25.185  0.00  0.00    +0.119 HD
ATOM      4  H2  ILE A   1      23.851   8.785  24.647  0.00  0.00    +0.119 HD
ENDBRANCH   1   2
BRANCH   1   5
ATOM      5  CB  ILE A   1      23.072   9.585  27.858  0.00  0.00    +0.013 C 
ATOM      6  CG2 ILE A   1      23.952   9.250  29.078  0.00  0.00    +0.009 C 
BRANCH   5   7
ATOM      7  CG1 ILE A   1      23.223  11.096  27.516  0.00  0.00    +0.002 C 
ATOM      8  CD1 ILE A   1      24.424  11.739  28.212  0.00  0.00    +0.004 C 
ENDBRANCH   5   7
ENDBRANCH   1   5
BRANCH   1   9
ATOM      9  C   ILE A   1      22.311   7.694  26.374  0.00  0.00    +0.322 C 
ATOM     10  O   ILE A   1      21.546   7.881  25.390  0.00  0.00    -0.249 OA
BRANCH   9  11
ATOM     11  OXT ILE A   1      22.121   6.590  27.201  0.00  0.00    -0.479 OA
ATOM     12  HXT ILE A   1      21.242   6.450  27.685  0.00  0.00    +0.295 HD
ENDBRANCH   9  11
ENDBRANCH   1   9
TORSDOF 5
ENDMDL
